
     Program PWSCF v.7.2 starts on 20Jun2024 at 10:22:45 
        Git branch: drg.prod
        Last git commit: ab96b3061f2a70676ff2b72f19eba53893e0187b-dirty
        Last git commit date: Sat Jun 1 20:23:37 2024 -0700
        Last git commit subject: allow the use of very large ecutwfc

     This program is part of the open-source Quantum ESPRESSO suite
     for quantum simulation of materials; please cite
         "P. Giannozzi et al., J. Phys.:Condens. Matter 21 395502 (2009);
         "P. Giannozzi et al., J. Phys.:Condens. Matter 29 465901 (2017);
         "P. Giannozzi et al., J. Chem. Phys. 152 154105 (2020);
          URL http://www.quantum-espresso.org", 
     in publications or presentations arising from this work. More details at
     http://www.quantum-espresso.org/quote

     Parallel version (MPI & OpenMP), running on    2048 processor cores
     Number of MPI processes:                64
     Threads/MPI process:                    32

     MPI processes distributed on     8 nodes
     493122 MiB available memory on the printing compute node when the environment starts
 
     Waiting for input...
     Reading input from standard input

     Current dimensions of program PWSCF are:
     Max number of different atomic species (ntypx) = 10
     Max number of k-points (npk) =  40000
     Max angular momentum in pseudopotentials (lmaxx) =  4
     Message from routine scan_end:
     No INFO block end statement, possibly corrupted file

     IMPORTANT: XC functional enforced from input :
     Exchange-correlation= PBE0
                           (   6   4   8   4   0   0   0)
     EXX-fraction              =        0.25
     Any further DFT definition will be discarded
     Please, verify this is what you really want

     Message from routine iosys:
     Variable cell and hybrid XC little tested

     gamma-point specific algorithms are used
 
     R & G space division:  proc/nbgrp/npool/nimage =      64
     Subspace diagonalization in iterative solution of the eigenvalue problem:
     one sub-group per band group will be used
     custom distributed-memory algorithm (size of sub-group:  4*  4 procs)

     EXX: q-point mesh:     1    1    1
     EXX: grid of k+q points same as grid of k-points
 
     Parallelization info
     --------------------
     sticks:   dense  smooth     PW     G-vecs:    dense   smooth      PW
     Min         496     496    123                73960    73960    9244
     Max         498     498    126                73982    73982    9254
     Sum       31821   31821   7957              4734003  4734003  591751
 
     Using Slab Decomposition
 


     bravais-lattice index     =            8
     lattice parameter (alat)  =      26.9325  a.u.
     unit-cell volume          =   19073.9354 (a.u.)^3
     number of atoms/cell      =          288
     number of atomic types    =            2
     number of electrons       =       768.00
     number of Kohn-Sham states=          384
     kinetic-energy cutoff     =     150.0000  Ry
     charge density cutoff     =     600.0000  Ry
     cutoff for Fock operator  =     600.0000  Ry
     scf convergence threshold =      1.0E-06
     mixing beta               =       0.7000
     number of iterations used =            8  plain     mixing
     energy convergence thresh.=      1.0E-04
     force convergence thresh. =      1.0E-03
     press convergence thresh. =      5.0E-01
     Exchange-correlation= PBE0
                           (   6   4   8   4   0   0   0)
     EXX-fraction              =        0.25
     nstep                     =          300

     A smooth kinetic-energy cutoff is imposed at     130.0000 Ry
     height of the smooth step-function =             200.0000 Ry
     width of the smooth step-function  =              15.0000 Ry


     celldm(1)=  26.932536  celldm(2)=   0.919024  celldm(3)=   1.062385
     celldm(4)=   0.000000  celldm(5)=   0.000000  celldm(6)=   0.000000

     crystal axes: (cart. coord. in units of alat)
               a(1) = (   1.000000   0.000000   0.000000 )  
               a(2) = (   0.000000   0.919024   0.000000 )  
               a(3) = (   0.000000   0.000000   1.062385 )  

     reciprocal axes: (cart. coord. in units 2 pi/alat)
               b(1) = (  1.000000  0.000000  0.000000 )  
               b(2) = (  0.000000  1.088111  0.000000 )  
               b(3) = (  0.000000  0.000000  0.941278 )  


     PseudoPot. # 1 for H  read from file:
     ./H_HSCV_PBE-1.0.UPF
     MD5 check sum: 31544ba92ee05a06ae1d082ec2460d19
     Pseudo is Norm-conserving, Zval =  1.0
     Generated by new atomic code, or converted to UPF format
     Using radial grid of 2537 points,  0 beta functions with: 

     PseudoPot. # 2 for O  read from file:
     ./O_HSCV_PBE-1.0.UPF
     MD5 check sum: a5a52169c71ea0405bad903be39234ff
     Pseudo is Norm-conserving, Zval =  6.0
     Generated by new atomic code, or converted to UPF format
     Using radial grid of 2208 points,  1 beta functions with: 
                l(1) =   0

     atomic species   valence    mass     pseudopotential
        H              1.00     1.00800     H ( 1.00)
        O              6.00    15.99900     O ( 1.00)

     No symmetry found



   Cartesian axes

     site n.     atom                  positions (alat units)
         1           O   tau(   1) = (   0.0929893   0.0799101   0.0918331  )
         2           O   tau(   2) = (   0.1560945   0.2320413   0.1796550  )
         3           O   tau(   3) = (   0.4046520   0.0805207   0.0880428  )
         4           O   tau(   4) = (   0.3439181   0.2348534   0.1739719  )
         5           O   tau(   5) = (   0.0937562   0.2251965   0.3553750  )
         6           O   tau(   6) = (   0.1557900   0.0702824   0.4417074  )
         7           O   tau(   7) = (   0.4074586   0.2246169   0.3509693  )
         8           O   tau(   8) = (   0.3438755   0.0712598   0.4410629  )
         9           O   tau(   9) = (   0.0952057   0.0742990   0.6195853  )
        10           O   tau(  10) = (   0.1591349   0.2267393   0.7086826  )
        11           O   tau(  11) = (   0.4087383   0.0708197   0.6176246  )
        12           O   tau(  12) = (   0.3469826   0.2240856   0.7071801  )
        13           O   tau(  13) = (   0.0959104   0.2284398   0.8855580  )
        14           O   tau(  14) = (   0.1559314   0.0762612   0.9778058  )
        15           O   tau(  15) = (   0.4108054   0.2273698   0.8833448  )
        16           O   tau(  16) = (   0.3435560   0.0771829   0.9733992  )
        17           O   tau(  17) = (   0.0952639   0.3849114   0.0900374  )
        18           O   tau(  18) = (   0.1542338   0.5391943   0.1776803  )
        19           O   tau(  19) = (   0.4069666   0.3877062   0.0851730  )
        20           O   tau(  20) = (   0.3415039   0.5396714   0.1733163  )
        21           O   tau(  21) = (   0.0928795   0.5316919   0.3549348  )
        22           O   tau(  22) = (   0.1579133   0.3787725   0.4415735  )
        23           O   tau(  23) = (   0.4063210   0.5331141   0.3498041  )
        24           O   tau(  24) = (   0.3461457   0.3788330   0.4389192  )
        25           O   tau(  25) = (   0.0959463   0.3787844   0.6186208  )
        26           O   tau(  26) = (   0.1562182   0.5308513   0.7102619  )
        27           O   tau(  27) = (   0.4088782   0.3764328   0.6167881  )
        28           O   tau(  28) = (   0.3438724   0.5277699   0.7059403  )
        29           O   tau(  29) = (   0.0915341   0.5362950   0.8867815  )
        30           O   tau(  30) = (   0.1574421   0.3830381   0.9746867  )
        31           O   tau(  31) = (   0.4056572   0.5355758   0.8832746  )
        32           O   tau(  32) = (   0.3456711   0.3807555   0.9701815  )
        33           O   tau(  33) = (   0.0911914   0.6910467   0.0874066  )
        34           O   tau(  34) = (   0.1528430   0.8430898   0.1780844  )
        35           O   tau(  35) = (   0.4053163   0.6925812   0.0848665  )
        36           O   tau(  36) = (   0.3408501   0.8449115   0.1737059  )
        37           O   tau(  37) = (   0.0912656   0.8345547   0.3555674  )
        38           O   tau(  38) = (   0.1545678   0.6835594   0.4464297  )
        39           O   tau(  39) = (   0.4037964   0.8370046   0.3511574  )
        40           O   tau(  40) = (   0.3419703   0.6837776   0.4408013  )
        41           O   tau(  41) = (   0.0928206   0.6845834   0.6234729  )
        42           O   tau(  42) = (   0.1549573   0.8397555   0.7084321  )
        43           O   tau(  43) = (   0.4045865   0.6828108   0.6182612  )
        44           O   tau(  44) = (   0.3417801   0.8379686   0.7048106  )
        45           O   tau(  45) = (   0.0938739   0.8445500   0.8850339  )
        46           O   tau(  46) = (   0.1547697   0.6902177   0.9731024  )
        47           O   tau(  47) = (   0.4011543   0.8427076   0.8827413  )
        48           O   tau(  48) = (   0.3419061   0.6882167   0.9709193  )
        49           O   tau(  49) = (   0.5917951   0.0812441   0.0916391  )
        50           O   tau(  50) = (   0.6566513   0.2348544   0.1776510  )
        51           O   tau(  51) = (   0.9058864   0.0805552   0.0858627  )
        52           O   tau(  52) = (   0.8436592   0.2329828   0.1745164  )
        53           O   tau(  53) = (   0.5942854   0.2285747   0.3543728  )
        54           O   tau(  54) = (   0.6559170   0.0747477   0.4432796  )
        55           O   tau(  55) = (   0.9067474   0.2287777   0.3500053  )
        56           O   tau(  56) = (   0.8441081   0.0770440   0.4403495  )
        57           O   tau(  57) = (   0.5963696   0.0757879   0.6219613  )
        58           O   tau(  58) = (   0.6594673   0.2289688   0.7100740  )
        59           O   tau(  59) = (   0.9075789   0.0755935   0.6163277  )
        60           O   tau(  60) = (   0.8468154   0.2293444   0.7059044  )
        61           O   tau(  61) = (   0.5985843   0.2331317   0.8875177  )
        62           O   tau(  62) = (   0.6566643   0.0795712   0.9780373  )
        63           O   tau(  63) = (   0.9077947   0.2338451   0.8831486  )
        64           O   tau(  64) = (   0.8437610   0.0819146   0.9721661  )
        65           O   tau(  65) = (   0.5949597   0.3902397   0.0920620  )
        66           O   tau(  66) = (   0.6557172   0.5446813   0.1796970  )
        67           O   tau(  67) = (   0.9077087   0.3870107   0.0894260  )
        68           O   tau(  68) = (   0.8424999   0.5402946   0.1753180  )
        69           O   tau(  69) = (   0.5943961   0.5353376   0.3568170  )
        70           O   tau(  70) = (   0.6579500   0.3814796   0.4446734  )
        71           O   tau(  71) = (   0.9057256   0.5356362   0.3511456  )
        72           O   tau(  72) = (   0.8451633   0.3813313   0.4385237  )
        73           O   tau(  73) = (   0.5963006   0.3815493   0.6220987  )
        74           O   tau(  74) = (   0.6589768   0.5347953   0.7123357  )
        75           O   tau(  75) = (   0.9082699   0.3807744   0.6149305  )
        76           O   tau(  76) = (   0.8460599   0.5346513   0.7034888  )
        77           O   tau(  77) = (   0.5939708   0.5389002   0.8881922  )
        78           O   tau(  78) = (   0.6580181   0.3868625   0.9777886  )
        79           O   tau(  79) = (   0.9036044   0.5412075   0.8822934  )
        80           O   tau(  80) = (   0.8460079   0.3868554   0.9740699  )
        81           O   tau(  81) = (   0.5929140   0.6946114   0.0882561  )
        82           O   tau(  82) = (   0.6547114   0.8466342   0.1784561  )
        83           O   tau(  83) = (   0.9034678   0.6940557   0.0862280  )
        84           O   tau(  84) = (   0.8415730   0.8473591   0.1740199  )
        85           O   tau(  85) = (   0.5912951   0.8401184   0.3552979  )
        86           O   tau(  86) = (   0.6538391   0.6880735   0.4481827  )
        87           O   tau(  87) = (   0.9039212   0.8419108   0.3512229  )
        88           O   tau(  88) = (   0.8422224   0.6881098   0.4405291  )
        89           O   tau(  89) = (   0.5929709   0.6879020   0.6254715  )
        90           O   tau(  90) = (   0.6550015   0.8417614   0.7138916  )
        91           O   tau(  91) = (   0.9052685   0.6905247   0.6169306  )
        92           O   tau(  92) = (   0.8428495   0.8434459   0.7071648  )
        93           O   tau(  93) = (   0.5889265   0.8479391   0.8894023  )
        94           O   tau(  94) = (   0.6534836   0.6949609   0.9740912  )
        95           O   tau(  95) = (   0.9061303   0.8478493   0.8841516  )
        96           O   tau(  96) = (   0.8410964   0.6949962   0.9714994  )
        97           H   tau(  97) = (   0.0235105   0.0789144   0.0899763  )
        98           H   tau(  98) = (   0.1315001   0.1764950   0.1458198  )
        99           H   tau(  99) = (   0.3824165   0.0802104   0.0221855  )
       100           H   tau( 100) = (   0.2744763   0.2356967   0.1743184  )
       101           H   tau( 101) = (   0.1168219   0.1669734   0.3853529  )
       102           H   tau( 102) = (   0.1307847   0.0128886   0.4117326  )
       103           H   tau( 103) = (   0.4769531   0.2262876   0.3501519  )
       104           H   tau( 104) = (   0.2744585   0.0724796   0.4405373  )
       105           H   tau( 105) = (   0.0258092   0.0768479   0.6202432  )
       106           H   tau( 106) = (   0.2285767   0.2258866   0.7095341  )
       107           H   tau( 107) = (   0.3837210   0.0136752   0.6482188  )
       108           H   tau( 108) = (   0.3696940   0.1678523   0.6733919  )
       109           H   tau( 109) = (   0.0265097   0.2287396   0.8851634  )
       110           H   tau( 110) = (   0.2253615   0.0774042   0.9781621  )
       111           H   tau( 111) = (   0.4802579   0.2283342   0.8825811  )
       112           H   tau( 112) = (   0.3645153   0.0203585   0.9393433  )
       113           H   tau( 113) = (   0.1193800   0.3850562   0.0249496  )
       114           H   tau( 114) = (   0.2236039   0.5420022   0.1758402  )
       115           H   tau( 115) = (   0.4762876   0.3901904   0.0885626  )
       116           H   tau( 116) = (   0.3664340   0.5969187   0.1429103  )
       117           H   tau( 117) = (   0.1170094   0.4739399   0.3851327  )
       118           H   tau( 118) = (   0.1333484   0.3212113   0.4114089  )
       119           H   tau( 119) = (   0.3830229   0.4762944   0.3822757  )
       120           H   tau( 120) = (   0.2767776   0.3764859   0.4393760  )
       121           H   tau( 121) = (   0.1199775   0.3233100   0.6528078  )
       122           H   tau( 122) = (   0.1323506   0.5881368   0.6790368  )
       123           H   tau( 123) = (   0.3854147   0.3784027   0.5515155  )
       124           H   tau( 124) = (   0.2744778   0.5291285   0.7090331  )
       125           H   tau( 125) = (   0.1161156   0.4809017   0.9205751  )
       126           H   tau( 126) = (   0.2267622   0.3806909   0.9720053  )
       127           H   tau( 127) = (   0.4750647   0.5356661   0.8849257  )
       128           H   tau( 128) = (   0.3703003   0.3235592   0.9393863  )
       129           H   tau( 129) = (   0.0217862   0.6919720   0.0849678  )
       130           H   tau( 130) = (   0.2222369   0.8433555   0.1757387  )
       131           H   tau( 131) = (   0.4747387   0.6942653   0.0871013  )
       132           H   tau( 132) = (   0.3645803   0.9030459   0.1440118  )
       133           H   tau( 133) = (   0.0219173   0.8369830   0.3526893  )
       134           H   tau( 134) = (   0.1317094   0.6272611   0.4127732  )
       135           H   tau( 135) = (   0.3799500   0.7811511   0.3848282  )
       136           H   tau( 136) = (   0.2725469   0.6835419   0.4437068  )
       137           H   tau( 137) = (   0.1162791   0.6854337   0.5580754  )
       138           H   tau( 138) = (   0.1314920   0.8969918   0.6767404  )
       139           H   tau( 139) = (   0.4738839   0.6835348   0.6217391  )
       140           H   tau( 140) = (   0.2722747   0.8376309   0.7049722  )
       141           H   tau( 141) = (   0.0244588   0.8469573   0.8861246  )
       142           H   tau( 142) = (   0.2242453   0.6907447   0.9717592  )
       143           H   tau( 143) = (   0.3788143   0.7848493   0.9140425  )
       144           H   tau( 144) = (   0.3660816   0.6308766   0.9400005  )
       145           H   tau( 145) = (   0.5223027   0.0834326   0.0911229  )
       146           H   tau( 146) = (   0.7261696   0.2347909   0.1761450  )
       147           H   tau( 147) = (   0.8807537   0.0233897   0.1163885  )
       148           H   tau( 148) = (   0.8666906   0.1760381   0.1419873  )
       149           H   tau( 149) = (   0.6189202   0.2325495   0.2895230  )
       150           H   tau( 150) = (   0.6310158   0.0190676   0.4101558  )
       151           H   tau( 151) = (   0.9761753   0.2258085   0.3517868  )
       152           H   tau( 152) = (   0.7747496   0.0762286   0.4426150  )
       153           H   tau( 153) = (   0.5269943   0.0736470   0.6194160  )
       154           H   tau( 154) = (   0.6350389   0.1733340   0.6764205  )
       155           H   tau( 155) = (   0.8827829   0.0204601   0.6505801  )
       156           H   tau( 156) = (   0.7773486   0.2304033   0.7058796  )
       157           H   tau( 157) = (   0.6208852   0.1757754   0.9197433  )
       158           H   tau( 158) = (   0.6302428   0.0233578   0.9469470  )
       159           H   tau( 159) = (   0.8842493   0.2350057   0.8177751  )
       160           H   tau( 160) = (   0.7743253   0.0824812   0.9733300  )
       161           H   tau( 161) = (   0.6193999   0.3909481   0.0270752  )
       162           H   tau( 162) = (   0.7252024   0.5426498   0.1803687  )
       163           H   tau( 163) = (   0.9771433   0.3855616   0.0907153  )
       164           H   tau( 164) = (   0.8663758   0.4829417   0.1442206  )
       165           H   tau( 165) = (   0.5249715   0.5355114   0.3554015  )
       166           H   tau( 166) = (   0.7273865   0.3823276   0.4414112  )
       167           H   tau( 167) = (   0.9751733   0.5353651   0.3531492  )
       168           H   tau( 168) = (   0.8689333   0.3256423   0.4043653  )
       169           H   tau( 169) = (   0.5268992   0.3804604   0.6188243  )
       170           H   tau( 170) = (   0.7283442   0.5332948   0.7084023  )
       171           H   tau( 171) = (   0.9776833   0.3798346   0.6146893  )
       172           H   tau( 172) = (   0.8702458   0.4794567   0.6690031  )
       173           H   tau( 173) = (   0.6180213   0.4822883   0.9204852  )
       174           H   tau( 174) = (   0.7274380   0.3860672   0.9766766  )
       175           H   tau( 175) = (   0.9729856   0.5400457   0.8826591  )
       176           H   tau( 176) = (   0.8681118   0.4446140   0.9426271  )
       177           H   tau( 177) = (   0.6170751   0.6398766   0.1237061  )
       178           H   tau( 178) = (   0.6300410   0.9044509   0.1488717  )
       179           H   tau( 179) = (   0.8804468   0.6366420   0.1178414  )
       180           H   tau( 180) = (   0.7721063   0.8464084   0.1751234  )
       181           H   tau( 181) = (   0.5218887   0.8373283   0.3552488  )
       182           H   tau( 182) = (   0.7232270   0.6879965   0.4477584  )
       183           H   tau( 183) = (   0.8801759   0.8448646   0.2859999  )
       184           H   tau( 184) = (   0.8643913   0.7453687   0.4081020  )
       185           H   tau( 185) = (   0.6181975   0.6323323   0.6585874  )
       186           H   tau( 186) = (   0.6324156   0.8984832   0.6808501  )
       187           H   tau( 187) = (   0.9746514   0.6908473   0.6202707  )
       188           H   tau( 188) = (   0.7734710   0.8432592   0.7108651  )
       189           H   tau( 189) = (   0.5195733   0.8453163   0.8875391  )
       190           H   tau( 190) = (   0.6303265   0.6371383   0.9433964  )
       191           H   tau( 191) = (   0.8809320   0.7925429   0.9177373  )
       192           H   tau( 192) = (   0.7716184   0.6936261   0.9716186  )
       193           H   tau( 193) = (   0.1130590   0.0219974   0.1245356  )
       194           H   tau( 194) = (   0.1324327   0.2881860   0.1462824  )
       195           H   tau( 195) = (   0.3802183   0.1385590   0.1174989  )
       196           H   tau( 196) = (   0.3652769   0.2923864   0.1414541  )
       197           H   tau( 197) = (   0.1178045   0.2257427   0.2901185  )
       198           H   tau( 198) = (   0.1325720   0.0708845   0.5071524  )
       199           H   tau( 199) = (   0.3864005   0.2286151   0.2849881  )
       200           H   tau( 200) = (   0.3658071   0.1275177   0.4068883  )
       201           H   tau( 201) = (   0.1181135   0.1307236   0.6530288  )
       202           H   tau( 202) = (   0.1377298   0.2265688   0.7747553  )
       203           H   tau( 203) = (   0.3845029   0.0705278   0.5525777  )
       204           H   tau( 204) = (   0.3701118   0.2792738   0.6719084  )
       205           H   tau( 205) = (   0.1160408   0.1717058   0.9201713  )
       206           H   tau( 206) = (   0.1347563   0.0769640   1.0439563  )
       207           H   tau( 207) = (   0.3899925   0.2261228   0.8170680  )
       208           H   tau( 208) = (   0.3689403   0.1316851   0.9386081  )
       209           H   tau( 209) = (   0.1186643   0.4428349   0.1205836  )
       210           H   tau( 210) = (   0.1309993   0.5956730   0.1445212  )
       211           H   tau( 211) = (   0.3836132   0.4449173   0.1169299  )
       212           H   tau( 212) = (   0.3662155   0.5386308   0.2382336  )
       213           H   tau( 213) = (   0.1173571   0.5331284   0.2899837  )
       214           H   tau( 214) = (   0.1354660   0.3779861   0.5073202  )
       215           H   tau( 215) = (   0.3811759   0.5875378   0.3849161  )
       216           H   tau( 216) = (   0.3678072   0.3215200   0.4061137  )
       217           H   tau( 217) = (   0.1179774   0.4345493   0.6536861  )
       218           H   tau( 218) = (   0.1322021   0.5327159   0.7754076  )
       219           H   tau( 219) = (   0.3834950   0.4325996   0.6488876  )
       220           H   tau( 220) = (   0.3664892   0.5300441   0.7715647  )
       221           H   tau( 221) = (   0.1161863   0.5926311   0.9191542  )
       222           H   tau( 222) = (   0.1348427   0.3258713   0.9424332  )
       223           H   tau( 223) = (   0.3850804   0.4775301   0.9155341  )
       224           H   tau( 224) = (   0.3699999   0.3814508   1.0352057  )
       225           H   tau( 225) = (   0.1137910   0.6909292   0.0217115  )
       226           H   tau( 226) = (   0.1316106   0.7868638   0.1432132  )
       227           H   tau( 227) = (   0.3831133   0.7499962   0.1171125  )
       228           H   tau( 228) = (   0.3648280   0.8436774   0.2388413  )
       229           H   tau( 229) = (   0.1135400   0.8364590   0.2897822  )
       230           H   tau( 230) = (   0.1296854   0.7383572   0.4116324  )
       231           H   tau( 231) = (   0.3803120   0.8924005   0.3858318  )
       232           H   tau( 232) = (   0.3648659   0.6830002   0.5063400  )
       233           H   tau( 233) = (   0.1165749   0.7422614   0.6540658  )
       234           H   tau( 234) = (   0.1320177   0.8427387   0.7740096  )
       235           H   tau( 235) = (   0.3834507   0.6254192   0.6511442  )
       236           H   tau( 236) = (   0.3625232   0.7798195   0.6731157  )
       237           H   tau( 237) = (   0.1163086   0.9003201   0.9198800  )
       238           H   tau( 238) = (   0.1334006   0.7477584   0.9406010  )
       239           H   tau( 239) = (   0.3785846   0.8398220   0.8170970  )
       240           H   tau( 240) = (   0.3670218   0.6884561   1.0356907  )
       241           H   tau( 241) = (   0.6140607   0.1391199   0.1229104  )
       242           H   tau( 242) = (   0.6360171   0.2931631   0.1460721  )
       243           H   tau( 243) = (   0.8826316   0.0805497   0.0203475  )
       244           H   tau( 244) = (   0.8681228   0.2298955   0.2395209  )
       245           H   tau( 245) = (   0.6170680   0.2852324   0.3874519  )
       246           H   tau( 246) = (   0.6328606   0.1306379   0.4091634  )
       247           H   tau( 247) = (   0.8836578   0.1724885   0.3835778  )
       248           H   tau( 248) = (   0.8662857   0.0767955   0.5062209  )
       249           H   tau( 249) = (   0.6180290   0.0749034   0.5560131  )
       250           H   tau( 250) = (   0.6345270   0.2846435   0.6767019  )
       251           H   tau( 251) = (   0.8841601   0.1317301   0.6498688  )
       252           H   tau( 252) = (   0.8677812   0.2856769   0.6709459  )
       253           H   tau( 253) = (   0.6228814   0.2306710   0.8224771  )
       254           H   tau( 254) = (   0.6323360   0.0795793   1.0431156  )
       255           H   tau( 255) = (   0.8850436   0.2915669   0.9141975  )
       256           H   tau( 256) = (   0.8645606   0.1392054   0.9388220  )
       257           H   tau( 257) = (   0.6180287   0.4478473   0.1233224  )
       258           H   tau( 258) = (   0.6345464   0.5423857   0.2458455  )
       259           H   tau( 259) = (   0.8859268   0.3294073   0.1216514  )
       260           H   tau( 260) = (   0.8675777   0.5386590   0.2401225  )
       261           H   tau( 261) = (   0.6140447   0.5916926   0.3924012  )
       262           H   tau( 262) = (   0.6358224   0.4387364   0.4122379  )
       263           H   tau( 263) = (   0.8844530   0.5925077   0.3849070  )
       264           H   tau( 264) = (   0.8682832   0.4375658   0.4049316  )
       265           H   tau( 265) = (   0.6192733   0.3824001   0.5565096  )
       266           H   tau( 266) = (   0.6361101   0.4783724   0.6790008  )
       267           H   tau( 267) = (   0.8878154   0.3807081   0.5485466  )
       268           H   tau( 268) = (   0.8683227   0.5912901   0.6700647  )
       269           H   tau( 269) = (   0.6195022   0.5362075   0.8236490  )
       270           H   tau( 270) = (   0.6371147   0.3293225   0.9449377  )
       271           H   tau( 271) = (   0.8839234   0.5383196   0.8157372  )
       272           H   tau( 272) = (   0.8704569   0.3879664   1.0390495  )
       273           H   tau( 273) = (   0.6157752   0.7511452   0.1216037  )
       274           H   tau( 274) = (   0.6308249   0.8448657   0.2436203  )
       275           H   tau( 275) = (   0.8795090   0.6921741   0.0210678  )
       276           H   tau( 276) = (   0.8621227   0.7898222   0.1409047  )
       277           H   tau( 277) = (   0.6133288   0.7838757   0.3894313  )
       278           H   tau( 278) = (   0.6338490   0.6887931   0.5147277  )
       279           H   tau( 279) = (   0.8815535   0.8993358   0.3832203  )
       280           H   tau( 280) = (   0.8674196   0.6908742   0.5052207  )
       281           H   tau( 281) = (   0.6151466   0.7438482   0.6600872  )
       282           H   tau( 282) = (   0.6301299   0.8450562   0.7786974  )
       283           H   tau( 283) = (   0.8829905   0.7469614   0.6506896  )
       284           H   tau( 284) = (   0.8656768   0.8453252   0.7727609  )
       285           H   tau( 285) = (   0.6103100   0.7900026   0.9214439  )
       286           H   tau( 286) = (   0.6313693   0.6930038   1.0399869  )
       287           H   tau( 287) = (   0.8820951   0.9041522   0.9170254  )
       288           H   tau( 288) = (   0.8625799   0.6383979   0.9374976  )

     number of k points=     1
                       cart. coord. in units 2pi/alat
        k(    1) = (   0.0000000   0.0000000   0.0000000), wk =   2.0000000

     Dense  grid:  2367002 G-vectors     FFT dimensions: ( 216, 200, 225)

     Estimated max dynamical RAM per process >     925.68 MB

     Estimated total dynamical RAM >      57.85 GB
 
   TS-vdW initialization
   ---------------------
 
   Determining TS-vdW damping function parameters...
     ddamp = 20.000000
     sR =  0.960000
   Initializing species #   1 with atomic symbol H  
     Equispaced/Uniform radial atomic grid detected...
     Radial grid parameter: NrgpA is  2537.
     Radial grid parameter: gfctrA is  1.000000.
     Radial grid parameter: dxA is  0.010000.
     The number of valence electrons, eref, is         1.000000005136149.
     The reference free atom volume, vref, is        10.488055754397561 bohr^3.
     Determining intial radial grid cutoff...
     An acceptable radial grid cutoff was determined by retaining  795 of 2537 radial grid points.
     The magnitude of the atomic pseudo-density at the radial grid cutoff is  2.669801E-07.
     Using this radial grid cutoff value of         7.940000000000000 au:
     The free atom volume computed with this cutoff is        10.384749018802095 bohr^3 with an error of  0.985%.
     Linear grid spacing was computed as:         0.008940000000000 bohr.
     The free atom static dipole polarizability is      4.500000 bohr^3.
     The free atom homonuclear C6 coefficient is      6.500000 Hartree bohr^6.
     The free atom vdW radius is      3.100000 bohr.
   Initializing species #   2 with atomic symbol O  
     Equispaced/Uniform radial atomic grid detected...
     Radial grid parameter: NrgpA is  2208.
     Radial grid parameter: gfctrA is  1.000000.
     Radial grid parameter: dxA is  0.010000.
     The number of valence electrons, eref, is         6.000000039411558.
     The reference free atom volume, vref, is        23.754493175219807 bohr^3.
     Determining intial radial grid cutoff...
     An acceptable radial grid cutoff was determined by retaining  617 of 2208 radial grid points.
     The magnitude of the atomic pseudo-density at the radial grid cutoff is  2.530054E-06.
     Using this radial grid cutoff value of         6.160000000000000 au:
     The free atom volume computed with this cutoff is        23.522305161381485 bohr^3 with an error of  0.977%.
     Linear grid spacing was computed as:         0.007160000000000 bohr.
     The free atom static dipole polarizability is      5.400000 bohr^3.
     The free atom homonuclear C6 coefficient is     15.600000 Hartree bohr^6.
     The free atom vdW radius is      3.190000 bohr.
     EXX: ACE will be initialized later

     Initial potential from superposition of free atoms

     starting charge     767.9981, renormalised to     768.0000
     Starting wfcs are  576 randomized atomic wfcs

     total cpu time spent up to now is        4.8 secs

     per-process dynamical memory:   172.4 Mb

     Self-consistent Calculation

     iteration #  1     ecut=   150.00 Ry     beta= 0.70
     Davidson diagonalization with overlap
     ethr =  1.00E-02,  avg # of iterations =  2.0

     total cpu time spent up to now is        9.0 secs

     total energy              =   -3293.33560633 Ry
     estimated scf accuracy    <      29.61988447 Ry

     iteration #  2     ecut=   150.00 Ry     beta= 0.70
     Davidson diagonalization with overlap
     ethr =  3.86E-03,  avg # of iterations =  2.0

     total cpu time spent up to now is       12.8 secs

     total energy              =   -3302.49772159 Ry
     estimated scf accuracy    <      14.15018904 Ry

     iteration #  3     ecut=   150.00 Ry     beta= 0.70
     Davidson diagonalization with overlap
     ethr =  1.84E-03,  avg # of iterations =  2.0

     total cpu time spent up to now is       16.4 secs

     total energy              =   -3304.53556615 Ry
     estimated scf accuracy    <       0.25581977 Ry

     iteration #  4     ecut=   150.00 Ry     beta= 0.70
     Davidson diagonalization with overlap
     ethr =  3.33E-05,  avg # of iterations =  3.0

     total cpu time spent up to now is       20.4 secs

     total energy              =   -3304.66055778 Ry
     estimated scf accuracy    <       0.20675061 Ry

     iteration #  5     ecut=   150.00 Ry     beta= 0.70
     Davidson diagonalization with overlap
     ethr =  2.69E-05,  avg # of iterations =  1.0

     total cpu time spent up to now is       24.0 secs

     total energy              =   -3304.66048384 Ry
     estimated scf accuracy    <       0.03774299 Ry

     iteration #  6     ecut=   150.00 Ry     beta= 0.70
     Davidson diagonalization with overlap
     ethr =  4.91E-06,  avg # of iterations =  2.0

     total cpu time spent up to now is       27.7 secs

     total energy              =   -3304.66374440 Ry
     estimated scf accuracy    <       0.00432362 Ry

     iteration #  7     ecut=   150.00 Ry     beta= 0.70
     Davidson diagonalization with overlap
     ethr =  5.63E-07,  avg # of iterations =  2.0

     total cpu time spent up to now is       31.4 secs

     total energy              =   -3304.66538686 Ry
     estimated scf accuracy    <       0.00036649 Ry

     iteration #  8     ecut=   150.00 Ry     beta= 0.70
     Davidson diagonalization with overlap
     ethr =  4.77E-08,  avg # of iterations =  1.0

     total cpu time spent up to now is       34.3 secs

     total energy              =   -3304.66535500 Ry
     estimated scf accuracy    <       0.00010022 Ry

     iteration #  9     ecut=   150.00 Ry     beta= 0.70
     Davidson diagonalization with overlap
     ethr =  1.30E-08,  avg # of iterations =  2.0

     total cpu time spent up to now is       37.8 secs

     End of self-consistent calculation

          k = 0.0000 0.0000 0.0000 (295876 PWs)   bands (ev):

   -21.6706 -21.5225 -21.5171 -21.5036 -21.4990 -21.4738 -21.4680 -21.3630
   -21.3604 -21.3597 -21.3563 -21.3540 -21.3515 -21.3495 -21.3457 -21.3185
   -21.3141 -21.3113 -21.3094 -21.2660 -21.2623 -21.2171 -21.2143 -21.2120
   -21.2083 -21.2081 -21.2071 -21.2042 -21.2016 -21.1431 -21.1407 -21.1068
   -21.1016 -21.0634 -21.0629 -21.0589 -21.0576 -21.0568 -21.0547 -21.0530
   -21.0508 -21.0498 -21.0478 -20.9356 -20.9307 -20.9281 -20.9251 -20.8451
   -20.8397 -20.7571 -20.7546 -20.7514 -20.7505 -20.6323 -20.6298 -20.6271
   -20.6256 -20.6231 -20.6224 -20.6211 -20.6189 -20.6150 -20.6129 -20.5703
   -20.5695 -20.5321 -20.5304 -20.4634 -20.4606 -20.4586 -20.4571 -20.4568
   -20.4556 -20.4525 -20.4501 -20.3971 -20.3934 -20.3432 -20.3411 -20.3396
   -20.3350 -20.3004 -20.2969 -20.2962 -20.2915 -20.2893 -20.2882 -20.2869
   -20.2833 -20.1584 -20.1538 -20.1200 -20.1160 -20.0989 -20.0946 -19.9087
    -9.1490  -9.1455  -9.1397  -9.1297  -9.1274  -9.1216  -9.1176  -9.1129
    -9.1113  -9.1051  -9.0963  -9.0952  -9.0894  -9.0813  -9.0791  -9.0762
    -9.0734  -9.0688  -9.0647  -9.0620  -9.0559  -9.0546  -9.0504  -9.0493
    -9.0450  -9.0424  -9.0380  -9.0363  -9.0350  -9.0311  -9.0301  -9.0257
    -9.0218  -9.0199  -9.0169  -9.0136  -9.0104  -9.0071  -9.0045  -9.0017
    -9.0004  -8.9990  -8.9949  -8.9925  -8.9875  -8.9842  -8.9818  -8.9813
    -8.9788  -8.9766  -8.9737  -8.9722  -8.9678  -8.9653  -8.9624  -8.9608
    -8.9578  -8.9552  -8.9491  -8.9473  -8.9428  -8.9400  -8.9372  -8.9344
    -8.9331  -8.9320  -8.9296  -8.9264  -8.9233  -8.9195  -8.9177  -8.9168
    -8.9154  -8.9106  -8.9086  -8.9060  -8.9038  -8.9000  -8.8968  -8.8946
    -8.8900  -8.8838  -8.8825  -8.8749  -8.8740  -8.8711  -8.8669  -8.8618
    -8.8579  -8.8576  -8.8497  -8.8459  -8.8428  -8.8253  -8.8142  -8.8072
    -7.1946  -6.8728  -6.8550  -6.8258  -6.7858  -6.7530  -6.7269  -6.5879
    -6.5643  -6.5446  -6.5316  -6.5250  -6.5043  -6.4886  -6.4673  -6.4613
    -6.4467  -6.4151  -6.4035  -6.3766  -6.3644  -6.3114  -6.2984  -6.2876
    -6.2656  -6.2422  -6.2240  -6.2004  -6.1880  -6.1641  -6.1501  -6.0792
    -6.0518  -6.0260  -6.0024  -5.9866  -5.9793  -5.9617  -5.9468  -5.9112
    -5.9107  -5.8841  -5.8760  -5.7675  -5.7654  -5.7147  -5.6840  -5.6095
    -5.4711  -5.3429  -5.3364  -5.3321  -5.3072  -5.1859  -5.1648  -5.1486
    -5.1262  -5.1121  -5.0882  -5.0840  -5.0642  -5.0425  -5.0378  -4.9938
    -4.9839  -4.9395  -4.9143  -4.9004  -4.8589  -4.8487  -4.8413  -4.8232
    -4.8128  -4.7985  -4.7767  -4.7191  -4.7116  -4.6850  -4.6736  -4.6564
    -4.6201  -4.6029  -4.5854  -4.5716  -4.5578  -4.5442  -4.5329  -4.5126
    -4.4927  -4.3669  -4.3446  -4.2930  -4.2754  -4.2422  -4.2277  -3.9027
    -3.5864  -3.5735  -3.5725  -3.5348  -3.5322  -3.5241  -3.5126  -3.5058
    -3.5018  -3.4937  -3.4898  -3.4797  -3.4722  -3.4627  -3.4614  -3.4563
    -3.4515  -3.4432  -3.4393  -3.4317  -3.4213  -3.4137  -3.4129  -3.4058
    -3.4024  -3.3995  -3.3897  -3.3820  -3.3808  -3.3791  -3.3709  -3.3637
    -3.3573  -3.3554  -3.3521  -3.3485  -3.3429  -3.3400  -3.3348  -3.3270
    -3.3224  -3.3173  -3.3110  -3.3076  -3.2999  -3.2949  -3.2923  -3.2881
    -3.2845  -3.2762  -3.2700  -3.2640  -3.2632  -3.2536  -3.2518  -3.2460
    -3.2411  -3.2395  -3.2344  -3.2325  -3.2228  -3.2207  -3.2156  -3.2147
    -3.2049  -3.2009  -3.1975  -3.1894  -3.1844  -3.1742  -3.1688  -3.1665
    -3.1620  -3.1601  -3.1567  -3.1530  -3.1435  -3.1367  -3.1305  -3.1280
    -3.1168  -3.1134  -3.1067  -3.0945  -3.0926  -3.0824  -3.0806  -3.0768
    -3.0709  -3.0654  -3.0617  -3.0545  -3.0443  -3.0308  -3.0274  -3.0172

     highest occupied level (ev):    -3.0172

!    total energy              =   -3304.66537813 Ry
     estimated scf accuracy    <       0.00000060 Ry

     convergence has been achieved in   9 iterations

     Using ACE for calculation of exact exchange
     ACE projected onto   384 (nbndproj) and applied to   384 (nbnd) bands
 
     -------------------------------------------------------
                       ____          _                      
                      / ___|  ___   / \                     
                      \___ \ / _ \ / _ \                    
                       ___) |  __// ___ \                   
                      |____/ \___/_/   \_\                  
 
       SeA: High-Throughput Hybrid DFT via SCDM + exxl + ACE
 
       Settings: use_cholesky=F sea_thr_outer=0.0000E+00
       For detailed exxl settings, see exxl.log
 
       Reference: [J. Chem. Theory Comput. 19, 4182 (2023).]
 
       SCDM version: ab96b3061f2a70676ff2b72f19eba53893e0187b-dirty
       exxl version: af6139230a2decfe9b02c7f12d6aa623cbf6a38b
     -------------------------------------------------------

     SCDM FFT initializations: using cell specified in the input file

     SCDM (QR) FFT initialization

     FFT dimensions: ( 108, 100, 120)

     Local G-vectors counts:       4624

     SCDM (Local Orbital) FFT initialization

     FFT dimensions: ( 108, 100, 120)

     Local G-vectors counts:       4624
 <exxl> use expert input:sea.in
 
     Performing O(N) exact-exchange calculation via exxl;
     For more details see:  exxl.log            
 
 current_k,current_spin:           1           1
      <exxl:large memory usage> dxxl:   318.581634521484       MB
      <exxl:large memory usage> dxxl_rma:   318.581634521484       MB
     <exxl:pair_selection>
      total ij pairs:     73920
      delta:   4.62883E-03
      selected <ij> pairs:      6340
      fraction of pairs selected:   8.58%
     </exxl:pair_selection>
     <exxl:domain_truncation>
     0-/25-/50-/75-/100-percentile of the {Omega_ii} size relative to Omega:
        5.91%    8.80%   10.42%   11.78%   13.77% 
     min/max Oii anisotropy (long/short):   1.02 and    1.58
     </exxl:domain_truncation>
     <exxl:bounding_box>
      actual coverage threshold: 2.6828E-04
     </exxl:bounding_box>

     EXX: now go back to refine exchange calculation

     total cpu time spent up to now is       47.8 secs

     per-process dynamical memory:   284.0 Mb

     Self-consistent Calculation

     iteration #  1     ecut=   150.00 Ry     beta= 0.70
     Davidson diagonalization with overlap
     ethr =  1.30E-08,  avg # of iterations =  7.0

     total cpu time spent up to now is       55.4 secs

     total energy              =   -3303.56415659 Ry
     estimated scf accuracy    <       0.03013500 Ry

     iteration #  2     ecut=   150.00 Ry     beta= 0.70
     Davidson diagonalization with overlap
     ethr =  3.92E-06,  avg # of iterations =  2.0

     total cpu time spent up to now is       59.5 secs

     total energy              =   -3303.56728373 Ry
     estimated scf accuracy    <       0.00439061 Ry

     iteration #  3     ecut=   150.00 Ry     beta= 0.70
     Davidson diagonalization with overlap
     ethr =  5.72E-07,  avg # of iterations =  2.0

     total cpu time spent up to now is       63.7 secs

     total energy              =   -3303.56808858 Ry
     estimated scf accuracy    <       0.00033886 Ry

     iteration #  4     ecut=   150.00 Ry     beta= 0.70
     Davidson diagonalization with overlap
     ethr =  4.41E-08,  avg # of iterations =  2.0

     total cpu time spent up to now is       67.1 secs

     total energy              =   -3303.56811489 Ry
     estimated scf accuracy    <       0.00000681 Ry

     iteration #  5     ecut=   150.00 Ry     beta= 0.70
     Davidson diagonalization with overlap
     ethr =  8.86E-10,  avg # of iterations =  3.0

     total cpu time spent up to now is       71.0 secs

     End of self-consistent calculation

          k = 0.0000 0.0000 0.0000 (295876 PWs)   bands (ev):

   -25.0074 -24.8451 -24.8398 -24.8248 -24.8188 -24.7947 -24.7889 -24.6739
   -24.6718 -24.6710 -24.6692 -24.6652 -24.6637 -24.6621 -24.6581 -24.6290
   -24.6237 -24.6217 -24.6184 -24.5754 -24.5678 -24.5204 -24.5200 -24.5165
   -24.5128 -24.5120 -24.5118 -24.5083 -24.5053 -24.4434 -24.4423 -24.4029
   -24.3981 -24.3630 -24.3604 -24.3564 -24.3558 -24.3523 -24.3516 -24.3492
   -24.3467 -24.3466 -24.3440 -24.2235 -24.2208 -24.2176 -24.2141 -24.1266
   -24.1234 -24.0425 -24.0376 -24.0349 -24.0329 -23.9076 -23.9055 -23.9043
   -23.9013 -23.8999 -23.8975 -23.8957 -23.8940 -23.8898 -23.8874 -23.8418
   -23.8391 -23.7979 -23.7950 -23.7316 -23.7301 -23.7266 -23.7250 -23.7241
   -23.7236 -23.7211 -23.7189 -23.6604 -23.6516 -23.6072 -23.6051 -23.6031
   -23.5990 -23.5624 -23.5576 -23.5550 -23.5524 -23.5468 -23.5461 -23.5434
   -23.5399 -23.4138 -23.4085 -23.3704 -23.3661 -23.3474 -23.3413 -23.1485
   -11.1484 -11.1441 -11.1381 -11.1275 -11.1252 -11.1192 -11.1136 -11.1078
   -11.1071 -11.1005 -11.0908 -11.0879 -11.0814 -11.0741 -11.0704 -11.0671
   -11.0636 -11.0581 -11.0525 -11.0504 -11.0436 -11.0419 -11.0376 -11.0373
   -11.0319 -11.0314 -11.0238 -11.0226 -11.0194 -11.0174 -11.0142 -11.0114
   -11.0049 -11.0036 -10.9996 -10.9970 -10.9923 -10.9891 -10.9871 -10.9851
   -10.9830 -10.9799 -10.9751 -10.9728 -10.9674 -10.9653 -10.9622 -10.9595
   -10.9584 -10.9557 -10.9534 -10.9481 -10.9464 -10.9432 -10.9406 -10.9373
   -10.9356 -10.9303 -10.9257 -10.9231 -10.9178 -10.9150 -10.9113 -10.9099
   -10.9083 -10.9069 -10.9045 -10.9005 -10.8957 -10.8937 -10.8913 -10.8906
   -10.8888 -10.8838 -10.8814 -10.8781 -10.8773 -10.8723 -10.8709 -10.8671
   -10.8643 -10.8563 -10.8546 -10.8455 -10.8442 -10.8410 -10.8379 -10.8312
   -10.8282 -10.8264 -10.8195 -10.8152 -10.8104 -10.7938 -10.7823 -10.7729
    -9.2203  -8.8791  -8.8582  -8.8281  -8.7852  -8.7508  -8.7237  -8.5773
    -8.5553  -8.5336  -8.5187  -8.5097  -8.4889  -8.4703  -8.4470  -8.4404
    -8.4270  -8.3933  -8.3815  -8.3531  -8.3412  -8.2887  -8.2763  -8.2644
    -8.2378  -8.2141  -8.1911  -8.1712  -8.1562  -8.1332  -8.1197  -8.0376
    -8.0101  -7.9848  -7.9591  -7.9414  -7.9349  -7.9146  -7.8940  -7.8518
    -7.8505  -7.8225  -7.8152  -7.7078  -7.7038  -7.6498  -7.6172  -7.5456
    -7.3775  -7.2406  -7.2342  -7.2303  -7.2027  -7.0742  -7.0512  -7.0353
    -7.0078  -6.9941  -6.9672  -6.9613  -6.9409  -6.9184  -6.9117  -6.8595
    -6.8517  -6.8107  -6.7848  -6.7727  -6.7234  -6.7156  -6.7072  -6.6887
    -6.6756  -6.6571  -6.6348  -6.5770  -6.5630  -6.5343  -6.5249  -6.5057
    -6.4622  -6.4467  -6.4242  -6.4101  -6.3926  -6.3722  -6.3633  -6.3461
    -6.3170  -6.1808  -6.1576  -6.0991  -6.0754  -6.0436  -6.0279  -5.6422
    -5.3571  -5.3432  -5.3415  -5.3044  -5.2988  -5.2886  -5.2740  -5.2710
    -5.2637  -5.2578  -5.2514  -5.2386  -5.2316  -5.2250  -5.2179  -5.2173
    -5.2122  -5.1989  -5.1945  -5.1876  -5.1785  -5.1727  -5.1680  -5.1610
    -5.1568  -5.1512  -5.1423  -5.1349  -5.1317  -5.1285  -5.1200  -5.1125
    -5.1094  -5.1046  -5.1011  -5.0993  -5.0923  -5.0888  -5.0846  -5.0748
    -5.0706  -5.0631  -5.0601  -5.0544  -5.0467  -5.0404  -5.0388  -5.0312
    -5.0275  -5.0188  -5.0152  -5.0073  -5.0051  -4.9964  -4.9936  -4.9893
    -4.9852  -4.9814  -4.9770  -4.9709  -4.9631  -4.9594  -4.9561  -4.9537
    -4.9447  -4.9398  -4.9361  -4.9270  -4.9242  -4.9148  -4.9054  -4.9047
    -4.8985  -4.8953  -4.8929  -4.8893  -4.8792  -4.8713  -4.8631  -4.8616
    -4.8496  -4.8467  -4.8406  -4.8253  -4.8250  -4.8141  -4.8103  -4.8067
    -4.8011  -4.7957  -4.7912  -4.7806  -4.7724  -4.7591  -4.7527  -4.7437

     highest occupied level (ev):    -4.7437

!    total energy              =   -3303.56811855 Ry
     estimated scf accuracy    <       0.00000095 Ry

     convergence has been achieved in   5 iterations
 averaged(idm_loss):  9.956954077161573E-005

     Using ACE for calculation of exact exchange
     ACE projected onto   384 (nbndproj) and applied to   384 (nbnd) bands
 current_k,current_spin:           1           1
     <exxl:pair_selection>
      total ij pairs:     73920
      delta:   4.96961E-03
      selected <ij> pairs:      5293
      fraction of pairs selected:   7.16%
     </exxl:pair_selection>
     <exxl:domain_truncation>
     0-/25-/50-/75-/100-percentile of the {Omega_ii} size relative to Omega:
        5.20%    7.66%    9.07%   10.00%   11.69% 
     min/max Oii anisotropy (long/short):   1.03 and    1.64
     </exxl:domain_truncation>
     <exxl:bounding_box>
      actual coverage threshold: 2.6083E-04
     </exxl:bounding_box>

     total energy              =   -3303.58207831 Ry
     Harris-Foulkes estimate   =   -3303.58209807 Ry
     est. exchange err (dexx)  =       0.01395976 Ry
     - averaged Fock potential =     378.25574259 Ry
     + Fock energy (ACE)       =    -189.41187295 Ry

     EXX: now go back to refine exchange calculation

     total cpu time spent up to now is       78.4 secs

     per-process dynamical memory:   285.1 Mb

     Self-consistent Calculation

     iteration #  1     ecut=   150.00 Ry     beta= 0.70
     Davidson diagonalization with overlap
     ethr =  8.86E-10,  avg # of iterations =  7.0

     total cpu time spent up to now is       85.6 secs

     total energy              =   -3303.58490979 Ry
     estimated scf accuracy    <       0.00113074 Ry

     iteration #  2     ecut=   150.00 Ry     beta= 0.70
     Davidson diagonalization with overlap
     ethr =  1.47E-07,  avg # of iterations =  2.0

     total cpu time spent up to now is       89.5 secs

     total energy              =   -3303.58521035 Ry
     estimated scf accuracy    <       0.00029501 Ry

     iteration #  3     ecut=   150.00 Ry     beta= 0.70
     Davidson diagonalization with overlap
     ethr =  3.84E-08,  avg # of iterations =  2.0

     total cpu time spent up to now is       93.8 secs

     total energy              =   -3303.58525972 Ry
     estimated scf accuracy    <       0.00000422 Ry

     iteration #  4     ecut=   150.00 Ry     beta= 0.70
     Davidson diagonalization with overlap
     ethr =  5.50E-10,  avg # of iterations =  2.0

     total cpu time spent up to now is       97.7 secs

     End of self-consistent calculation

          k = 0.0000 0.0000 0.0000 (295876 PWs)   bands (ev):

   -24.9972 -24.8376 -24.8327 -24.8172 -24.8115 -24.7840 -24.7784 -24.6676
   -24.6649 -24.6642 -24.6599 -24.6578 -24.6558 -24.6528 -24.6485 -24.6192
   -24.6136 -24.6124 -24.6093 -24.5697 -24.5610 -24.5117 -24.5102 -24.5070
   -24.5035 -24.5033 -24.5020 -24.4993 -24.4963 -24.4385 -24.4369 -24.3980
   -24.3923 -24.3540 -24.3514 -24.3477 -24.3464 -24.3429 -24.3425 -24.3396
   -24.3387 -24.3377 -24.3347 -24.2153 -24.2122 -24.2090 -24.2056 -24.1219
   -24.1188 -24.0338 -24.0284 -24.0257 -24.0246 -23.9004 -23.8978 -23.8960
   -23.8936 -23.8921 -23.8911 -23.8897 -23.8856 -23.8816 -23.8793 -23.8360
   -23.8341 -23.7932 -23.7919 -23.7240 -23.7227 -23.7203 -23.7187 -23.7168
   -23.7165 -23.7141 -23.7104 -23.6554 -23.6477 -23.6005 -23.5982 -23.5966
   -23.5907 -23.5559 -23.5512 -23.5500 -23.5464 -23.5431 -23.5423 -23.5400
   -23.5360 -23.4083 -23.4026 -23.3676 -23.3629 -23.3453 -23.3397 -23.1478
   -11.1357 -11.1306 -11.1244 -11.1133 -11.1113 -11.1051 -11.1001 -11.0938
   -11.0935 -11.0868 -11.0768 -11.0735 -11.0675 -11.0604 -11.0565 -11.0535
   -11.0494 -11.0442 -11.0387 -11.0365 -11.0302 -11.0287 -11.0244 -11.0229
   -11.0182 -11.0174 -11.0095 -11.0080 -11.0051 -11.0038 -10.9999 -10.9978
   -10.9912 -10.9899 -10.9864 -10.9832 -10.9790 -10.9751 -10.9730 -10.9715
   -10.9687 -10.9662 -10.9614 -10.9584 -10.9530 -10.9510 -10.9482 -10.9452
   -10.9447 -10.9419 -10.9397 -10.9339 -10.9317 -10.9292 -10.9265 -10.9227
   -10.9212 -10.9160 -10.9109 -10.9084 -10.9036 -10.9009 -10.8977 -10.8960
   -10.8939 -10.8918 -10.8903 -10.8861 -10.8810 -10.8788 -10.8759 -10.8753
   -10.8743 -10.8681 -10.8662 -10.8631 -10.8621 -10.8569 -10.8559 -10.8523
   -10.8482 -10.8400 -10.8389 -10.8297 -10.8285 -10.8247 -10.8217 -10.8158
   -10.8116 -10.8103 -10.8031 -10.7983 -10.7943 -10.7760 -10.7643 -10.7555
    -9.2124  -8.8718  -8.8513  -8.8208  -8.7776  -8.7442  -8.7164  -8.5703
    -8.5482  -8.5270  -8.5128  -8.5031  -8.4817  -8.4643  -8.4410  -8.4343
    -8.4207  -8.3870  -8.3752  -8.3466  -8.3350  -8.2819  -8.2697  -8.2568
    -8.2309  -8.2069  -8.1852  -8.1641  -8.1491  -8.1255  -8.1116  -8.0310
    -8.0033  -7.9782  -7.9528  -7.9351  -7.9283  -7.9079  -7.8877  -7.8456
    -7.8444  -7.8160  -7.8094  -7.7007  -7.6968  -7.6429  -7.6098  -7.5355
    -7.3703  -7.2323  -7.2258  -7.2218  -7.1948  -7.0665  -7.0426  -7.0271
    -7.0006  -6.9839  -6.9576  -6.9530  -6.9319  -6.9093  -6.9034  -6.8519
    -6.8427  -6.7996  -6.7733  -6.7609  -6.7123  -6.7034  -6.6959  -6.6770
    -6.6650  -6.6472  -6.6253  -6.5648  -6.5519  -6.5238  -6.5138  -6.4955
    -6.4526  -6.4353  -6.4142  -6.3999  -6.3832  -6.3643  -6.3549  -6.3374
    -6.3088  -6.1743  -6.1511  -6.0912  -6.0699  -6.0359  -6.0220  -5.6450
    -5.3598  -5.3478  -5.3450  -5.3041  -5.2996  -5.2900  -5.2750  -5.2722
    -5.2660  -5.2581  -5.2530  -5.2403  -5.2327  -5.2248  -5.2204  -5.2173
    -5.2129  -5.1992  -5.1972  -5.1886  -5.1782  -5.1719  -5.1684  -5.1606
    -5.1580  -5.1539  -5.1447  -5.1352  -5.1338  -5.1316  -5.1224  -5.1138
    -5.1115  -5.1061  -5.1024  -5.1003  -5.0933  -5.0888  -5.0863  -5.0752
    -5.0713  -5.0633  -5.0607  -5.0542  -5.0470  -5.0406  -5.0396  -5.0318
    -5.0297  -5.0197  -5.0157  -5.0087  -5.0064  -4.9966  -4.9944  -4.9899
    -4.9843  -4.9816  -4.9770  -4.9726  -4.9644  -4.9594  -4.9562  -4.9549
    -4.9449  -4.9394  -4.9361  -4.9276  -4.9247  -4.9154  -4.9057  -4.9043
    -4.8988  -4.8952  -4.8929  -4.8888  -4.8787  -4.8704  -4.8637  -4.8614
    -4.8497  -4.8461  -4.8406  -4.8246  -4.8243  -4.8139  -4.8091  -4.8045
    -4.7995  -4.7949  -4.7892  -4.7799  -4.7703  -4.7564  -4.7516  -4.7417

     highest occupied level (ev):    -4.7417

!    total energy              =   -3303.58525987 Ry
     estimated scf accuracy    <       0.00000096 Ry

     convergence has been achieved in   4 iterations
 averaged(idm_loss):  2.467454447985240E-006

     Using ACE for calculation of exact exchange
     ACE projected onto   384 (nbndproj) and applied to   384 (nbnd) bands
 current_k,current_spin:           1           1
     <exxl:pair_selection>
      total ij pairs:     73920
      delta:   5.07584E-03
      selected <ij> pairs:      5146
      fraction of pairs selected:   6.96%
     </exxl:pair_selection>
     <exxl:domain_truncation>
     0-/25-/50-/75-/100-percentile of the {Omega_ii} size relative to Omega:
        5.20%    7.57%    8.92%    9.79%   11.68% 
     min/max Oii anisotropy (long/short):   1.05 and    1.64
     </exxl:domain_truncation>
     <exxl:bounding_box>
      actual coverage threshold: 2.5996E-04
     </exxl:bounding_box>
     BEWARE: negative dexx:  -0.488E-03

     total energy              =   -3303.58477181 Ry
     Harris-Foulkes estimate   =   -3303.58473927 Ry
     est. exchange err (dexx)  =       0.00048807 Ry
     - averaged Fock potential =     378.92048418 Ry
     + Fock energy (ACE)       =    -189.50812317 Ry

     EXX: now go back to refine exchange calculation

     total cpu time spent up to now is      105.1 secs

     per-process dynamical memory:   285.7 Mb

     Self-consistent Calculation

     iteration #  1     ecut=   150.00 Ry     beta= 0.70
     Davidson diagonalization with overlap
     ethr =  5.50E-10,  avg # of iterations =  5.0

     total cpu time spent up to now is      110.8 secs

     total energy              =   -3303.58486811 Ry
     estimated scf accuracy    <       0.00002884 Ry

     iteration #  2     ecut=   150.00 Ry     beta= 0.70
     Davidson diagonalization with overlap
     ethr =  3.75E-09,  avg # of iterations =  2.0

     total cpu time spent up to now is      114.7 secs

     total energy              =   -3303.58487526 Ry
     estimated scf accuracy    <       0.00000705 Ry

     iteration #  3     ecut=   150.00 Ry     beta= 0.70
     Davidson diagonalization with overlap
     ethr =  9.18E-10,  avg # of iterations =  2.0

     total cpu time spent up to now is      118.3 secs

     End of self-consistent calculation

          k = 0.0000 0.0000 0.0000 (295876 PWs)   bands (ev):

   -24.9937 -24.8346 -24.8296 -24.8142 -24.8085 -24.7808 -24.7750 -24.6650
   -24.6621 -24.6614 -24.6569 -24.6550 -24.6525 -24.6500 -24.6454 -24.6162
   -24.6104 -24.6092 -24.6064 -24.5670 -24.5584 -24.5088 -24.5071 -24.5042
   -24.5009 -24.5003 -24.4990 -24.4963 -24.4935 -24.4362 -24.4344 -24.3958
   -24.3899 -24.3513 -24.3488 -24.3448 -24.3437 -24.3403 -24.3395 -24.3366
   -24.3360 -24.3346 -24.3319 -24.2126 -24.2094 -24.2066 -24.2032 -24.1201
   -24.1165 -24.0310 -24.0257 -24.0228 -24.0216 -23.8979 -23.8951 -23.8932
   -23.8910 -23.8899 -23.8884 -23.8871 -23.8833 -23.8791 -23.8769 -23.8335
   -23.8317 -23.7911 -23.7897 -23.7216 -23.7202 -23.7179 -23.7162 -23.7142
   -23.7138 -23.7113 -23.7075 -23.6529 -23.6453 -23.5979 -23.5956 -23.5942
   -23.5877 -23.5532 -23.5490 -23.5475 -23.5440 -23.5408 -23.5398 -23.5376
   -23.5334 -23.4058 -23.4000 -23.3652 -23.3602 -23.3430 -23.3375 -23.1454
   -11.1329 -11.1277 -11.1213 -11.1103 -11.1082 -11.1021 -11.0972 -11.0909
   -11.0904 -11.0839 -11.0738 -11.0705 -11.0644 -11.0573 -11.0537 -11.0504
   -11.0462 -11.0411 -11.0357 -11.0333 -11.0274 -11.0253 -11.0212 -11.0199
   -11.0150 -11.0142 -11.0067 -11.0049 -11.0020 -11.0008 -10.9969 -10.9947
   -10.9880 -10.9870 -10.9832 -10.9800 -10.9758 -10.9719 -10.9700 -10.9683
   -10.9656 -10.9629 -10.9581 -10.9553 -10.9500 -10.9478 -10.9450 -10.9422
   -10.9413 -10.9390 -10.9366 -10.9310 -10.9284 -10.9262 -10.9234 -10.9197
   -10.9180 -10.9130 -10.9079 -10.9049 -10.9007 -10.8979 -10.8944 -10.8927
   -10.8910 -10.8886 -10.8871 -10.8829 -10.8779 -10.8755 -10.8727 -10.8723
   -10.8712 -10.8648 -10.8629 -10.8600 -10.8588 -10.8536 -10.8526 -10.8493
   -10.8451 -10.8368 -10.8355 -10.8262 -10.8253 -10.8212 -10.8183 -10.8126
   -10.8084 -10.8072 -10.7998 -10.7949 -10.7913 -10.7724 -10.7609 -10.7521
    -9.2099  -8.8694  -8.8489  -8.8183  -8.7752  -8.7418  -8.7138  -8.5681
    -8.5460  -8.5245  -8.5107  -8.5008  -8.4793  -8.4620  -8.4385  -8.4318
    -8.4185  -8.3848  -8.3727  -8.3443  -8.3328  -8.2795  -8.2677  -8.2543
    -8.2288  -8.2045  -8.1828  -8.1620  -8.1466  -8.1232  -8.1093  -8.0290
    -8.0013  -7.9760  -7.9508  -7.9329  -7.9262  -7.9055  -7.8858  -7.8432
    -7.8423  -7.8138  -7.8074  -7.6986  -7.6946  -7.6408  -7.6077  -7.5332
    -7.3682  -7.2298  -7.2236  -7.2195  -7.1928  -7.0644  -7.0405  -7.0249
    -6.9985  -6.9814  -6.9552  -6.9507  -6.9300  -6.9068  -6.9012  -6.8501
    -6.8408  -6.7975  -6.7710  -6.7586  -6.7102  -6.7011  -6.6938  -6.6748
    -6.6629  -6.6450  -6.6232  -6.5628  -6.5498  -6.5220  -6.5118  -6.4937
    -6.4509  -6.4334  -6.4125  -6.3982  -6.3813  -6.3625  -6.3531  -6.3355
    -6.3072  -6.1730  -6.1499  -6.0900  -6.0687  -6.0346  -6.0208  -5.6441
    -5.3597  -5.3481  -5.3449  -5.3035  -5.2990  -5.2897  -5.2747  -5.2716
    -5.2658  -5.2576  -5.2527  -5.2401  -5.2323  -5.2245  -5.2203  -5.2167
    -5.2124  -5.1989  -5.1971  -5.1878  -5.1776  -5.1712  -5.1683  -5.1603
    -5.1580  -5.1535  -5.1442  -5.1348  -5.1337  -5.1315  -5.1223  -5.1134
    -5.1108  -5.1061  -5.1022  -5.0999  -5.0931  -5.0883  -5.0863  -5.0749
    -5.0708  -5.0632  -5.0605  -5.0539  -5.0468  -5.0404  -5.0394  -5.0318
    -5.0294  -5.0198  -5.0153  -5.0088  -5.0064  -4.9963  -4.9940  -4.9899
    -4.9843  -4.9815  -4.9766  -4.9723  -4.9642  -4.9591  -4.9561  -4.9547
    -4.9448  -4.9391  -4.9359  -4.9272  -4.9242  -4.9148  -4.9053  -4.9040
    -4.8985  -4.8945  -4.8931  -4.8883  -4.8784  -4.8700  -4.8634  -4.8610
    -4.8497  -4.8454  -4.8398  -4.8236  -4.8234  -4.8135  -4.8085  -4.8039
    -4.7991  -4.7946  -4.7883  -4.7791  -4.7696  -4.7557  -4.7508  -4.7411

     highest occupied level (ev):    -4.7411

!    total energy              =   -3303.58487643 Ry
     estimated scf accuracy    <       0.00000012 Ry

     convergence has been achieved in   3 iterations
 averaged(idm_loss):  9.055220340226100E-008

     Using ACE for calculation of exact exchange
     ACE projected onto   384 (nbndproj) and applied to   384 (nbnd) bands
 current_k,current_spin:           1           1
     <exxl:pair_selection>
      total ij pairs:     73920
      delta:   5.09798E-03
      selected <ij> pairs:      5120
      fraction of pairs selected:   6.93%
     </exxl:pair_selection>
     <exxl:domain_truncation>
     0-/25-/50-/75-/100-percentile of the {Omega_ii} size relative to Omega:
        5.10%    7.57%    8.85%    9.79%   11.53% 
     min/max Oii anisotropy (long/short):   1.05 and    1.61
     </exxl:domain_truncation>
     <exxl:bounding_box>
      actual coverage threshold: 2.6056E-04
     </exxl:bounding_box>
     BEWARE: negative dexx:  -0.185E-03

     total energy              =   -3303.58469153 Ry
     Harris-Foulkes estimate   =   -3303.58467354 Ry
     est. exchange err (dexx)  =       0.00018490 Ry
     - averaged Fock potential =     379.03089164 Ry
     + Fock energy (ACE)       =    -189.52258358 Ry

     EXX: now go back to refine exchange calculation

     total cpu time spent up to now is      125.2 secs

     per-process dynamical memory:   286.8 Mb

     Self-consistent Calculation

     iteration #  1     ecut=   150.00 Ry     beta= 0.70
     Davidson diagonalization with overlap
     ethr =  9.18E-10,  avg # of iterations =  3.0

     total cpu time spent up to now is      130.4 secs

     total energy              =   -3303.58469788 Ry
     estimated scf accuracy    <       0.00000126 Ry

     iteration #  2     ecut=   150.00 Ry     beta= 0.70
     Davidson diagonalization with overlap
     ethr =  1.64E-10,  avg # of iterations =  2.0

     total cpu time spent up to now is      134.2 secs

     End of self-consistent calculation

          k = 0.0000 0.0000 0.0000 (295876 PWs)   bands (ev):

   -24.9927 -24.8336 -24.8287 -24.8134 -24.8076 -24.7798 -24.7741 -24.6642
   -24.6613 -24.6605 -24.6559 -24.6543 -24.6517 -24.6490 -24.6447 -24.6154
   -24.6094 -24.6084 -24.6055 -24.5662 -24.5577 -24.5081 -24.5063 -24.5033
   -24.4999 -24.4994 -24.4982 -24.4954 -24.4927 -24.4353 -24.4336 -24.3949
   -24.3893 -24.3503 -24.3479 -24.3440 -24.3429 -24.3395 -24.3388 -24.3358
   -24.3352 -24.3338 -24.3310 -24.2118 -24.2086 -24.2058 -24.2025 -24.1193
   -24.1157 -24.0301 -24.0249 -24.0220 -24.0208 -23.8972 -23.8943 -23.8923
   -23.8902 -23.8890 -23.8877 -23.8862 -23.8825 -23.8783 -23.8761 -23.8327
   -23.8309 -23.7903 -23.7889 -23.7207 -23.7194 -23.7170 -23.7153 -23.7133
   -23.7129 -23.7106 -23.7068 -23.6520 -23.6446 -23.5969 -23.5948 -23.5933
   -23.5870 -23.5521 -23.5481 -23.5467 -23.5433 -23.5399 -23.5389 -23.5368
   -23.5328 -23.4047 -23.3992 -23.3643 -23.3594 -23.3421 -23.3368 -23.1445
   -11.1323 -11.1270 -11.1206 -11.1097 -11.1075 -11.1013 -11.0965 -11.0901
   -11.0898 -11.0832 -11.0729 -11.0698 -11.0638 -11.0565 -11.0529 -11.0496
   -11.0453 -11.0403 -11.0351 -11.0325 -11.0266 -11.0246 -11.0204 -11.0190
   -11.0143 -11.0134 -11.0059 -11.0041 -11.0012 -11.0000 -10.9961 -10.9939
   -10.9872 -10.9862 -10.9824 -10.9793 -10.9751 -10.9711 -10.9692 -10.9674
   -10.9649 -10.9621 -10.9573 -10.9545 -10.9492 -10.9471 -10.9441 -10.9414
   -10.9406 -10.9380 -10.9359 -10.9302 -10.9275 -10.9253 -10.9226 -10.9189
   -10.9173 -10.9123 -10.9072 -10.9040 -10.8998 -10.8972 -10.8935 -10.8918
   -10.8901 -10.8878 -10.8863 -10.8820 -10.8770 -10.8746 -10.8718 -10.8716
   -10.8703 -10.8640 -10.8619 -10.8591 -10.8580 -10.8528 -10.8517 -10.8484
   -10.8443 -10.8360 -10.8347 -10.8253 -10.8244 -10.8204 -10.8174 -10.8117
   -10.8075 -10.8062 -10.7989 -10.7940 -10.7903 -10.7714 -10.7599 -10.7510
    -9.2091  -8.8686  -8.8483  -8.8175  -8.7744  -8.7411  -8.7131  -8.5674
    -8.5453  -8.5238  -8.5100  -8.5001  -8.4786  -8.4613  -8.4378  -8.4311
    -8.4178  -8.3840  -8.3720  -8.3436  -8.3320  -8.2789  -8.2671  -8.2536
    -8.2280  -8.2038  -8.1821  -8.1613  -8.1458  -8.1224  -8.1086  -8.0284
    -8.0006  -7.9753  -7.9502  -7.9323  -7.9254  -7.9049  -7.8851  -7.8425
    -7.8415  -7.8131  -7.8067  -7.6979  -7.6940  -7.6403  -7.6071  -7.5326
    -7.3675  -7.2291  -7.2229  -7.2186  -7.1921  -7.0638  -7.0400  -7.0243
    -6.9978  -6.9807  -6.9545  -6.9500  -6.9291  -6.9061  -6.9006  -6.8495
    -6.8401  -6.7969  -6.7704  -6.7579  -6.7095  -6.7004  -6.6932  -6.6741
    -6.6623  -6.6444  -6.6226  -6.5621  -6.5493  -6.5214  -6.5111  -6.4931
    -6.4503  -6.4329  -6.4121  -6.3976  -6.3807  -6.3620  -6.3527  -6.3350
    -6.3066  -6.1726  -6.1493  -6.0896  -6.0683  -6.0338  -6.0205  -5.6436
    -5.3594  -5.3478  -5.3447  -5.3033  -5.2987  -5.2893  -5.2743  -5.2712
    -5.2655  -5.2572  -5.2525  -5.2399  -5.2320  -5.2241  -5.2201  -5.2163
    -5.2121  -5.1988  -5.1967  -5.1877  -5.1773  -5.1708  -5.1680  -5.1601
    -5.1577  -5.1533  -5.1441  -5.1346  -5.1337  -5.1313  -5.1221  -5.1133
    -5.1106  -5.1059  -5.1020  -5.0996  -5.0927  -5.0881  -5.0862  -5.0747
    -5.0707  -5.0630  -5.0602  -5.0535  -5.0466  -5.0401  -5.0391  -5.0317
    -5.0292  -5.0195  -5.0151  -5.0085  -5.0061  -4.9961  -4.9938  -4.9896
    -4.9839  -4.9813  -4.9763  -4.9721  -4.9639  -4.9588  -4.9557  -4.9544
    -4.9445  -4.9388  -4.9354  -4.9269  -4.9240  -4.9143  -4.9049  -4.9037
    -4.8982  -4.8943  -4.8928  -4.8880  -4.8781  -4.8698  -4.8632  -4.8607
    -4.8495  -4.8449  -4.8394  -4.8235  -4.8231  -4.8132  -4.8082  -4.8036
    -4.7986  -4.7944  -4.7879  -4.7786  -4.7693  -4.7553  -4.7506  -4.7407

     highest occupied level (ev):    -4.7407

!    total energy              =   -3303.58469812 Ry
     estimated scf accuracy    <       0.00000028 Ry

     convergence has been achieved in   2 iterations
 averaged(idm_loss):  5.124023982894244E-009

     Using ACE for calculation of exact exchange
     ACE projected onto   384 (nbndproj) and applied to   384 (nbnd) bands
 current_k,current_spin:           1           1
     <exxl:pair_selection>
      total ij pairs:     73920
      delta:   5.10230E-03
      selected <ij> pairs:      5117
      fraction of pairs selected:   6.92%
     </exxl:pair_selection>
     <exxl:domain_truncation>
     0-/25-/50-/75-/100-percentile of the {Omega_ii} size relative to Omega:
        5.10%    7.57%    8.85%    9.79%   11.53% 
     min/max Oii anisotropy (long/short):   1.05 and    1.61
     </exxl:domain_truncation>
     <exxl:bounding_box>
      actual coverage threshold: 2.6029E-04
     </exxl:bounding_box>
     BEWARE: negative dexx:  -0.148E-04

     total energy              =   -3303.58468334 Ry
     Harris-Foulkes estimate   =   -3303.58469682 Ry
     est. exchange err (dexx)  =       0.00001478 Ry
     - averaged Fock potential =     379.04709217 Ry
     + Fock energy (ACE)       =    -189.52449381 Ry

     EXX: now go back to refine exchange calculation

     total cpu time spent up to now is      141.2 secs

     per-process dynamical memory:   287.4 Mb

     Self-consistent Calculation

     iteration #  1     ecut=   150.00 Ry     beta= 0.70
     Davidson diagonalization with overlap
     ethr =  1.64E-10,  avg # of iterations =  4.0

     total cpu time spent up to now is      145.8 secs

     End of self-consistent calculation

          k = 0.0000 0.0000 0.0000 (295876 PWs)   bands (ev):

   -24.9932 -24.8342 -24.8293 -24.8139 -24.8082 -24.7803 -24.7747 -24.6648
   -24.6619 -24.6611 -24.6565 -24.6549 -24.6522 -24.6495 -24.6453 -24.6160
   -24.6100 -24.6090 -24.6061 -24.5668 -24.5583 -24.5087 -24.5068 -24.5037
   -24.5005 -24.5000 -24.4988 -24.4960 -24.4933 -24.4359 -24.4341 -24.3955
   -24.3899 -24.3508 -24.3485 -24.3446 -24.3434 -24.3401 -24.3394 -24.3364
   -24.3357 -24.3343 -24.3317 -24.2124 -24.2092 -24.2064 -24.2031 -24.1198
   -24.1163 -24.0308 -24.0254 -24.0225 -24.0214 -23.8980 -23.8949 -23.8929
   -23.8908 -23.8896 -23.8883 -23.8867 -23.8831 -23.8787 -23.8768 -23.8333
   -23.8315 -23.7909 -23.7896 -23.7214 -23.7199 -23.7176 -23.7159 -23.7139
   -23.7135 -23.7112 -23.7074 -23.6526 -23.6452 -23.5976 -23.5954 -23.5939
   -23.5876 -23.5528 -23.5486 -23.5473 -23.5439 -23.5405 -23.5395 -23.5374
   -23.5334 -23.4053 -23.3998 -23.3649 -23.3600 -23.3427 -23.3374 -23.1451
   -11.1326 -11.1274 -11.1211 -11.1100 -11.1079 -11.1018 -11.0969 -11.0905
   -11.0901 -11.0836 -11.0733 -11.0702 -11.0642 -11.0569 -11.0533 -11.0500
   -11.0457 -11.0408 -11.0355 -11.0329 -11.0270 -11.0250 -11.0208 -11.0195
   -11.0147 -11.0138 -11.0063 -11.0045 -11.0016 -11.0003 -10.9965 -10.9943
   -10.9876 -10.9867 -10.9827 -10.9797 -10.9754 -10.9715 -10.9696 -10.9678
   -10.9652 -10.9625 -10.9577 -10.9549 -10.9497 -10.9474 -10.9445 -10.9418
   -10.9411 -10.9385 -10.9363 -10.9306 -10.9279 -10.9257 -10.9229 -10.9193
   -10.9176 -10.9127 -10.9076 -10.9044 -10.9002 -10.8976 -10.8939 -10.8922
   -10.8905 -10.8882 -10.8867 -10.8824 -10.8774 -10.8750 -10.8722 -10.8719
   -10.8707 -10.8644 -10.8623 -10.8595 -10.8584 -10.8533 -10.8521 -10.8488
   -10.8447 -10.8363 -10.8351 -10.8257 -10.8247 -10.8208 -10.8178 -10.8121
   -10.8078 -10.8066 -10.7992 -10.7944 -10.7908 -10.7718 -10.7602 -10.7514
    -9.2096  -8.8691  -8.8488  -8.8181  -8.7749  -8.7416  -8.7136  -8.5679
    -8.5458  -8.5243  -8.5106  -8.5007  -8.4792  -8.4618  -8.4384  -8.4316
    -8.4184  -8.3846  -8.3726  -8.3441  -8.3325  -8.2794  -8.2676  -8.2542
    -8.2286  -8.2043  -8.1827  -8.1619  -8.1463  -8.1230  -8.1092  -8.0290
    -8.0012  -7.9759  -7.9507  -7.9329  -7.9260  -7.9054  -7.8857  -7.8432
    -7.8421  -7.8137  -7.8073  -7.6986  -7.6946  -7.6408  -7.6077  -7.5332
    -7.3681  -7.2297  -7.2235  -7.2192  -7.1927  -7.0644  -7.0406  -7.0249
    -6.9985  -6.9813  -6.9551  -6.9507  -6.9297  -6.9067  -6.9012  -6.8501
    -6.8409  -6.7975  -6.7710  -6.7585  -6.7102  -6.7010  -6.6939  -6.6748
    -6.6629  -6.6450  -6.6233  -6.5627  -6.5500  -6.5219  -6.5118  -6.4938
    -6.4510  -6.4335  -6.4128  -6.3983  -6.3814  -6.3627  -6.3533  -6.3357
    -6.3073  -6.1733  -6.1500  -6.0904  -6.0690  -6.0346  -6.0212  -5.6443
    -5.3602  -5.3485  -5.3454  -5.3040  -5.2993  -5.2900  -5.2750  -5.2719
    -5.2662  -5.2579  -5.2532  -5.2406  -5.2327  -5.2248  -5.2208  -5.2170
    -5.2128  -5.1995  -5.1975  -5.1883  -5.1780  -5.1715  -5.1688  -5.1608
    -5.1585  -5.1541  -5.1448  -5.1353  -5.1344  -5.1320  -5.1228  -5.1140
    -5.1113  -5.1067  -5.1027  -5.1003  -5.0934  -5.0888  -5.0869  -5.0754
    -5.0714  -5.0637  -5.0610  -5.0543  -5.0474  -5.0408  -5.0398  -5.0325
    -5.0300  -5.0202  -5.0158  -5.0093  -5.0068  -4.9968  -4.9946  -4.9904
    -4.9847  -4.9820  -4.9771  -4.9728  -4.9646  -4.9596  -4.9564  -4.9552
    -4.9452  -4.9396  -4.9362  -4.9277  -4.9248  -4.9151  -4.9058  -4.9044
    -4.8990  -4.8951  -4.8935  -4.8888  -4.8788  -4.8705  -4.8639  -4.8614
    -4.8502  -4.8457  -4.8401  -4.8243  -4.8239  -4.8139  -4.8090  -4.8044
    -4.7994  -4.7951  -4.7887  -4.7794  -4.7701  -4.7561  -4.7513  -4.7414

     highest occupied level (ev):    -4.7414

!    total energy              =   -3303.58468412 Ry
     estimated scf accuracy    <       0.00000052 Ry

     convergence has been achieved in   1 iterations
 averaged(idm_loss):  8.233351778130782E-010

     Using ACE for calculation of exact exchange
     ACE projected onto   384 (nbndproj) and applied to   384 (nbnd) bands
 current_k,current_spin:           1           1
     <exxl:pair_selection>
      total ij pairs:     73920
      delta:   5.10148E-03
      selected <ij> pairs:      5115
      fraction of pairs selected:   6.92%
     </exxl:pair_selection>
     <exxl:domain_truncation>
     0-/25-/50-/75-/100-percentile of the {Omega_ii} size relative to Omega:
        5.10%    7.57%    8.85%    9.79%   11.53% 
     min/max Oii anisotropy (long/short):   1.05 and    1.61
     </exxl:domain_truncation>
     <exxl:bounding_box>
      actual coverage threshold: 2.6013E-04
     </exxl:bounding_box>
     BEWARE: negative dexx:  -0.261E-04

     total energy              =   -3303.58465802 Ry
     Harris-Foulkes estimate   =   -3303.58462751 Ry
     est. exchange err (dexx)  =       0.00002610 Ry
     - averaged Fock potential =     379.05181403 Ry
     + Fock energy (ACE)       =    -189.52729412 Ry

     EXX: now go back to refine exchange calculation

     total cpu time spent up to now is      153.3 secs

     per-process dynamical memory:   288.0 Mb

     Self-consistent Calculation

     iteration #  1     ecut=   150.00 Ry     beta= 0.70
     Davidson diagonalization with overlap
     ethr =  1.64E-10,  avg # of iterations =  4.0

     total cpu time spent up to now is      157.5 secs

     End of self-consistent calculation

          k = 0.0000 0.0000 0.0000 (295876 PWs)   bands (ev):

   -24.9925 -24.8334 -24.8285 -24.8131 -24.8074 -24.7796 -24.7739 -24.6640
   -24.6611 -24.6603 -24.6557 -24.6541 -24.6514 -24.6487 -24.6445 -24.6152
   -24.6092 -24.6082 -24.6053 -24.5659 -24.5575 -24.5079 -24.5060 -24.5030
   -24.4997 -24.4992 -24.4980 -24.4952 -24.4925 -24.4351 -24.4333 -24.3947
   -24.3891 -24.3500 -24.3477 -24.3437 -24.3426 -24.3393 -24.3386 -24.3356
   -24.3349 -24.3335 -24.3309 -24.2115 -24.2084 -24.2056 -24.2022 -24.1190
   -24.1155 -24.0299 -24.0246 -24.0217 -24.0206 -23.8971 -23.8940 -23.8920
   -23.8900 -23.8888 -23.8875 -23.8859 -23.8822 -23.8779 -23.8759 -23.8324
   -23.8307 -23.7901 -23.7888 -23.7205 -23.7191 -23.7168 -23.7151 -23.7131
   -23.7125 -23.7103 -23.7066 -23.6517 -23.6444 -23.5967 -23.5945 -23.5931
   -23.5866 -23.5519 -23.5477 -23.5464 -23.5431 -23.5396 -23.5387 -23.5365
   -23.5325 -23.4044 -23.3989 -23.3641 -23.3590 -23.3418 -23.3366 -23.1442
   -11.1321 -11.1268 -11.1204 -11.1094 -11.1073 -11.1011 -11.0963 -11.0900
   -11.0895 -11.0830 -11.0727 -11.0696 -11.0635 -11.0563 -11.0527 -11.0494
   -11.0451 -11.0401 -11.0349 -11.0323 -11.0264 -11.0244 -11.0202 -11.0188
   -11.0140 -11.0132 -11.0057 -11.0039 -11.0010 -10.9997 -10.9959 -10.9937
   -10.9870 -10.9860 -10.9821 -10.9791 -10.9749 -10.9708 -10.9690 -10.9673
   -10.9646 -10.9619 -10.9570 -10.9542 -10.9490 -10.9468 -10.9438 -10.9412
   -10.9404 -10.9378 -10.9357 -10.9300 -10.9273 -10.9250 -10.9223 -10.9187
   -10.9170 -10.9120 -10.9069 -10.9037 -10.8995 -10.8969 -10.8932 -10.8916
   -10.8898 -10.8876 -10.8860 -10.8817 -10.8768 -10.8744 -10.8716 -10.8712
   -10.8700 -10.8637 -10.8616 -10.8589 -10.8577 -10.8526 -10.8514 -10.8482
   -10.8441 -10.8357 -10.8344 -10.8250 -10.8241 -10.8201 -10.8170 -10.8115
   -10.8072 -10.8059 -10.7985 -10.7937 -10.7901 -10.7712 -10.7596 -10.7507
    -9.2089  -8.8684  -8.8481  -8.8173  -8.7742  -8.7409  -8.7129  -8.5672
    -8.5452  -8.5236  -8.5099  -8.4999  -8.4785  -8.4611  -8.4376  -8.4309
    -8.4177  -8.3839  -8.3718  -8.3434  -8.3318  -8.2787  -8.2669  -8.2534
    -8.2279  -8.2036  -8.1819  -8.1611  -8.1456  -8.1222  -8.1085  -8.0282
    -8.0004  -7.9751  -7.9500  -7.9321  -7.9253  -7.9047  -7.8849  -7.8424
    -7.8413  -7.8129  -7.8065  -7.6978  -7.6938  -7.6401  -7.6069  -7.5325
    -7.3674  -7.2289  -7.2226  -7.2184  -7.1918  -7.0636  -7.0398  -7.0241
    -6.9977  -6.9805  -6.9543  -6.9498  -6.9289  -6.9059  -6.9004  -6.8493
    -6.8400  -6.7967  -6.7702  -6.7577  -6.7094  -6.7002  -6.6930  -6.6739
    -6.6621  -6.6442  -6.6224  -6.5619  -6.5492  -6.5211  -6.5110  -6.4929
    -6.4501  -6.4327  -6.4120  -6.3975  -6.3805  -6.3618  -6.3525  -6.3349
    -6.3064  -6.1725  -6.1492  -6.0895  -6.0682  -6.0337  -6.0203  -5.6434
    -5.3594  -5.3477  -5.3447  -5.3032  -5.2985  -5.2892  -5.2742  -5.2711
    -5.2654  -5.2571  -5.2524  -5.2398  -5.2319  -5.2239  -5.2200  -5.2162
    -5.2120  -5.1987  -5.1966  -5.1875  -5.1772  -5.1707  -5.1680  -5.1599
    -5.1577  -5.1532  -5.1440  -5.1345  -5.1336  -5.1312  -5.1220  -5.1132
    -5.1105  -5.1059  -5.1019  -5.0995  -5.0926  -5.0880  -5.0861  -5.0746
    -5.0706  -5.0628  -5.0601  -5.0534  -5.0465  -5.0400  -5.0390  -5.0317
    -5.0291  -5.0194  -5.0150  -5.0084  -5.0060  -4.9960  -4.9938  -4.9896
    -4.9839  -4.9812  -4.9762  -4.9720  -4.9638  -4.9587  -4.9556  -4.9543
    -4.9444  -4.9387  -4.9354  -4.9269  -4.9239  -4.9143  -4.9049  -4.9036
    -4.8981  -4.8943  -4.8927  -4.8879  -4.8780  -4.8697  -4.8631  -4.8606
    -4.8494  -4.8449  -4.8393  -4.8234  -4.8230  -4.8131  -4.8081  -4.8036
    -4.7985  -4.7943  -4.7879  -4.7785  -4.7692  -4.7552  -4.7505  -4.7405

     highest occupied level (ev):    -4.7405

!    total energy              =   -3303.58465839 Ry
     estimated scf accuracy    <       0.00000050 Ry

     convergence has been achieved in   1 iterations
 averaged(idm_loss):  4.169405931619963E-010

     Using ACE for calculation of exact exchange
     ACE projected onto   384 (nbndproj) and applied to   384 (nbnd) bands
 current_k,current_spin:           1           1
     <exxl:pair_selection>
      total ij pairs:     73920
      delta:   5.10176E-03
      selected <ij> pairs:      5116
      fraction of pairs selected:   6.92%
     </exxl:pair_selection>
     <exxl:domain_truncation>
     0-/25-/50-/75-/100-percentile of the {Omega_ii} size relative to Omega:
        5.10%    7.57%    8.85%    9.79%   11.53% 
     min/max Oii anisotropy (long/short):   1.05 and    1.61
     </exxl:domain_truncation>
     <exxl:bounding_box>
      actual coverage threshold: 2.6017E-04
     </exxl:bounding_box>

     total energy              =   -3303.58467093 Ry
     Harris-Foulkes estimate   =   -3303.58469651 Ry
     est. exchange err (dexx)  =       0.00001254 Ry
     - averaged Fock potential =     379.05214836 Ry
     + Fock energy (ACE)       =    -189.52486678 Ry

     EXX: now go back to refine exchange calculation

     total cpu time spent up to now is      164.7 secs

     per-process dynamical memory:   289.2 Mb

     Self-consistent Calculation

     iteration #  1     ecut=   150.00 Ry     beta= 0.70
     Davidson diagonalization with overlap
     ethr =  1.64E-10,  avg # of iterations =  4.0

     total cpu time spent up to now is      169.1 secs

     End of self-consistent calculation

          k = 0.0000 0.0000 0.0000 (295876 PWs)   bands (ev):

   -24.9932 -24.8342 -24.8292 -24.8139 -24.8081 -24.7803 -24.7747 -24.6648
   -24.6618 -24.6611 -24.6565 -24.6548 -24.6521 -24.6495 -24.6453 -24.6159
   -24.6099 -24.6090 -24.6061 -24.5667 -24.5582 -24.5086 -24.5068 -24.5037
   -24.5005 -24.4999 -24.4988 -24.4960 -24.4933 -24.4359 -24.4341 -24.3955
   -24.3899 -24.3508 -24.3484 -24.3445 -24.3434 -24.3401 -24.3394 -24.3364
   -24.3357 -24.3343 -24.3316 -24.2123 -24.2092 -24.2064 -24.2030 -24.1198
   -24.1163 -24.0307 -24.0254 -24.0225 -24.0214 -23.8980 -23.8948 -23.8929
   -23.8908 -23.8896 -23.8883 -23.8867 -23.8831 -23.8787 -23.8767 -23.8333
   -23.8315 -23.7909 -23.7896 -23.7213 -23.7199 -23.7176 -23.7159 -23.7139
   -23.7134 -23.7111 -23.7074 -23.6526 -23.6452 -23.5976 -23.5953 -23.5939
   -23.5875 -23.5527 -23.5486 -23.5472 -23.5439 -23.5405 -23.5395 -23.5373
   -23.5333 -23.4053 -23.3997 -23.3649 -23.3599 -23.3426 -23.3374 -23.1451
   -11.1326 -11.1274 -11.1210 -11.1100 -11.1079 -11.1017 -11.0969 -11.0906
   -11.0901 -11.0836 -11.0733 -11.0702 -11.0642 -11.0569 -11.0533 -11.0500
   -11.0457 -11.0407 -11.0355 -11.0329 -11.0270 -11.0250 -11.0208 -11.0194
   -11.0146 -11.0138 -11.0063 -11.0045 -11.0016 -11.0003 -10.9965 -10.9943
   -10.9876 -10.9867 -10.9827 -10.9797 -10.9754 -10.9714 -10.9696 -10.9678
   -10.9651 -10.9625 -10.9576 -10.9548 -10.9497 -10.9474 -10.9444 -10.9418
   -10.9410 -10.9385 -10.9363 -10.9306 -10.9280 -10.9257 -10.9229 -10.9193
   -10.9176 -10.9127 -10.9075 -10.9043 -10.9002 -10.8975 -10.8938 -10.8922
   -10.8905 -10.8882 -10.8866 -10.8824 -10.8774 -10.8750 -10.8722 -10.8718
   -10.8706 -10.8643 -10.8623 -10.8595 -10.8583 -10.8532 -10.8520 -10.8487
   -10.8447 -10.8363 -10.8351 -10.8256 -10.8247 -10.8207 -10.8177 -10.8121
   -10.8078 -10.8066 -10.7992 -10.7943 -10.7907 -10.7718 -10.7602 -10.7514
    -9.2096  -8.8691  -8.8487  -8.8180  -8.7749  -8.7415  -8.7136  -8.5679
    -8.5458  -8.5243  -8.5106  -8.5007  -8.4792  -8.4618  -8.4383  -8.4316
    -8.4184  -8.3846  -8.3726  -8.3441  -8.3325  -8.2794  -8.2676  -8.2542
    -8.2286  -8.2043  -8.1826  -8.1619  -8.1463  -8.1230  -8.1092  -8.0289
    -8.0012  -7.9758  -7.9507  -7.9328  -7.9260  -7.9054  -7.8857  -7.8431
    -7.8420  -7.8137  -7.8072  -7.6985  -7.6946  -7.6408  -7.6076  -7.5332
    -7.3681  -7.2297  -7.2234  -7.2192  -7.1927  -7.0644  -7.0406  -7.0249
    -6.9985  -6.9813  -6.9550  -6.9506  -6.9297  -6.9067  -6.9012  -6.8501
    -6.8408  -6.7975  -6.7710  -6.7585  -6.7102  -6.7010  -6.6938  -6.6748
    -6.6629  -6.6450  -6.6233  -6.5627  -6.5500  -6.5218  -6.5118  -6.4937
    -6.4510  -6.4335  -6.4128  -6.3983  -6.3814  -6.3627  -6.3533  -6.3357
    -6.3073  -6.1732  -6.1500  -6.0903  -6.0690  -6.0346  -6.0212  -5.6443
    -5.3601  -5.3485  -5.3454  -5.3039  -5.2993  -5.2900  -5.2750  -5.2719
    -5.2662  -5.2579  -5.2532  -5.2406  -5.2327  -5.2247  -5.2208  -5.2170
    -5.2128  -5.1995  -5.1974  -5.1883  -5.1779  -5.1715  -5.1688  -5.1608
    -5.1585  -5.1541  -5.1448  -5.1353  -5.1344  -5.1320  -5.1228  -5.1140
    -5.1113  -5.1067  -5.1026  -5.1003  -5.0934  -5.0888  -5.0869  -5.0754
    -5.0714  -5.0637  -5.0610  -5.0543  -5.0474  -5.0408  -5.0398  -5.0325
    -5.0300  -5.0202  -5.0158  -5.0093  -5.0068  -4.9968  -4.9946  -4.9904
    -4.9847  -4.9820  -4.9771  -4.9728  -4.9646  -4.9595  -4.9564  -4.9551
    -4.9452  -4.9396  -4.9362  -4.9277  -4.9248  -4.9151  -4.9058  -4.9044
    -4.8990  -4.8951  -4.8935  -4.8888  -4.8788  -4.8705  -4.8639  -4.8614
    -4.8502  -4.8457  -4.8401  -4.8243  -4.8239  -4.8139  -4.8090  -4.8044
    -4.7994  -4.7951  -4.7887  -4.7794  -4.7700  -4.7561  -4.7513  -4.7414

     highest occupied level (ev):    -4.7414

!    total energy              =   -3303.58467122 Ry
     estimated scf accuracy    <       0.00000049 Ry

     convergence has been achieved in   1 iterations
 averaged(idm_loss):  3.843082518883989E-010
 SeA: SCF plateaus at a tight intrinsic exxl accuracy
 uncertainty in exx energy (Ry) about   1.253562408010112E-005

     Using ACE for calculation of exact exchange
     ACE projected onto   384 (nbndproj) and applied to   384 (nbnd) bands
 current_k,current_spin:           1           1
     <exxl:pair_selection>
      total ij pairs:     73920
      delta:   5.10129E-03
      selected <ij> pairs:      5115
      fraction of pairs selected:   6.92%
     </exxl:pair_selection>
     <exxl:domain_truncation>
     0-/25-/50-/75-/100-percentile of the {Omega_ii} size relative to Omega:
        5.10%    7.57%    8.85%    9.79%   11.53% 
     min/max Oii anisotropy (long/short):   1.05 and    1.61
     </exxl:domain_truncation>
     <exxl:bounding_box>
[...]
O             0.0937409511        0.9187742055        0.8333640610
O             0.1545475332        0.7509319988        0.9161124326
O             0.4015983486        0.9169091521        0.8309921186
O             0.3418346155        0.7488153825        0.9139291342
O             0.5922339720        0.0884414354        0.0864890649
O             0.6564646472        0.2560362254        0.1673678231
O             0.9058995546        0.0874417567        0.0811632062
O             0.8440105523        0.2536810239        0.1643757676
O             0.5948821108        0.2490048343        0.3336715760
O             0.6560048790        0.0812862679        0.4171365252
O             0.9069579212        0.2483591924        0.3299860982
O             0.8437546795        0.0829396257        0.4146197469
O             0.5957833386        0.0824956936        0.5848221181
O             0.6594874580        0.2492052740        0.6682514670
O             0.9071192031        0.0826823252        0.5807239557
O             0.8465966977        0.2498095798        0.6648819343
O             0.5984312611        0.2537026298        0.8356373196
O             0.6562640764        0.0864782674        0.9201138286
O             0.9078295977        0.2543204104        0.8315143412
O             0.8435516909        0.0890066030        0.9147218562
O             0.5943328655        0.4240615766        0.0862312162
O             0.6557881926        0.5917410854        0.1689533046
O             0.9073105437        0.4209897862        0.0834407200
O             0.8432021618        0.5878495912        0.1648530588
O             0.5942606264        0.5826085555        0.3356284001
O             0.6573129746        0.4148224472        0.4181554662
O             0.9059037330        0.5832067320        0.3311268594
O             0.8449401052        0.4149996284        0.4130360670
O             0.5963238266        0.4156216101        0.5853116702
O             0.6585815366        0.5818408490        0.6701632396
O             0.9082451494        0.4153537868        0.5788559353
O             0.8457286997        0.5817337783        0.6626837077
O             0.5939405660        0.5862346212        0.8356753556
O             0.6581391989        0.4209411901        0.9200831523
O             0.9041510655        0.5883971097        0.8309451703
O             0.8453749262        0.4212468186        0.9165958785
O             0.5928861865        0.7557383507        0.0833212305
O             0.6544517719        0.9216644664        0.1679438781
O             0.9035085027        0.7548470694        0.0809836667
O             0.8417602366        0.9219344654        0.1638474602
O             0.5916298980        0.9141975622        0.3346375333
O             0.6539465611        0.7488750392        0.4213972705
O             0.9040237104        0.9160568326        0.3307895265
O             0.8423231229        0.7487187997        0.4148178886
O             0.5929569225        0.7486149939        0.5886090342
O             0.6552325242        0.9163600179        0.6716201187
O             0.9053113497        0.7511742523        0.5808342597
O             0.8432343169        0.9176835242        0.6659266889
O             0.5890906822        0.9227997535        0.8371019858
O             0.6537287351        0.7553116009        0.9168182194
O             0.9062121370        0.9221128761        0.8320763937
O             0.8411190445        0.7557747906        0.9143511088
H             0.0234307227        0.0851362647        0.0849241991
H             0.1321814704        0.1920654739        0.1369391857
H             0.3825506869        0.0871096142        0.0212674745
H             0.2744891753        0.2565265715        0.1645600946
H             0.1172479495        0.1819510639        0.3626449326
H             0.1314356401        0.0141569582        0.3875464532
H             0.4760648777        0.2456073255        0.3300619461
H             0.2744780889        0.0794281771        0.4147024600
H             0.0255742396        0.0832681163        0.5833338251
H             0.2286608662        0.2455436833        0.6680619272
H             0.3835843698        0.0150982922        0.6101734071
H             0.3696572320        0.1828923528        0.6335500999
H             0.0263092605        0.2493498970        0.8330431029
H             0.2253865122        0.0843194682        0.9201503591
H             0.4798717234        0.2495052596        0.8312158310
H             0.3647336895        0.0225851177        0.8839939701
H             0.1192552923        0.4190476308        0.0232876322
H             0.2240835287        0.5897392010        0.1651438251
H             0.4760961542        0.4241771531        0.0830294539
H             0.3666250840        0.6498774378        0.1347447084
H             0.1171945495        0.5158247103        0.3622103928
H             0.1336371783        0.3491384712        0.3873981108
H             0.3830742881        0.5183715187        0.3600048540
H             0.2764755495        0.4099766575        0.4136496701
H             0.1200882113        0.3518214667        0.6149647868
H             0.1324172264        0.6404407821        0.6389938770
H             0.3849726527        0.4118060184        0.5189290265
H             0.2744334612        0.5760478094        0.6675828573
H             0.1158626900        0.5228884981        0.8663064545
H             0.2265961090        0.4144542910        0.9152144573
H             0.4755034021        0.5819937732        0.8330751621
H             0.3703305377        0.3527513921        0.8842750376
H             0.0218491051        0.7527286949        0.0802193855
H             0.2225678515        0.9171031842        0.1658750542
H             0.4747760349        0.7556247403        0.0823517620
H             0.3645970134        0.9823471001        0.1359410849
H             0.0220023023        0.9115908497        0.3317095922
H             0.1317372850        0.6828078985        0.3881195726
H             0.3795814082        0.8502792984        0.3621385114
H             0.2728138335        0.7443327067        0.4178945276
H             0.1162515768        0.7462714327        0.5248906715
H             0.1318798767        0.9759023770        0.6368386703
H             0.4741472696        0.7435203677        0.5853101353
H             0.2727733849        0.9112539863        0.6636516765
H             0.0243402636        0.9212745778        0.8342022265
H             0.2239762478        0.7513177035        0.9149686559
H             0.3791488117        0.8541215323        0.8605095536
H             0.3660680181        0.6863921249        0.8850229084
H             0.5228036294        0.0904185168        0.0857153982
H             0.7258875210        0.2559000548        0.1653631352
H             0.8806849576        0.0253560784        0.1099228333
H             0.8666971294        0.1915566658        0.1338980835
H             0.6192014599        0.2528499690        0.2725049371
H             0.6309010097        0.0206537573        0.3862478330
H             0.9763396604        0.2452700612        0.3319159774
H             0.7743741072        0.0822294148        0.4165389554
H             0.5264343358        0.0803897889        0.5824713633
H             0.6347750561        0.1886929023        0.6368601174
H             0.8825834162        0.0226915360        0.6130505975
H             0.7771211316        0.2510910905        0.6644603787
H             0.6206019371        0.1912355692        0.8659385286
H             0.6301841955        0.0249043967        0.8912071515
H             0.8843616301        0.2557537411        0.7699719427
H             0.7741550300        0.0897805253        0.9158665988
H             0.6190957709        0.4246854727        0.0251823098
H             0.7252054727        0.5899729142        0.1695923123
H             0.9767251799        0.4194678274        0.0845515416
H             0.8668860317        0.5252601882        0.1357768269
H             0.5248491054        0.5828473942        0.3346506157
H             0.7266948841        0.4158814165        0.4154407885
H             0.9752889560        0.5832621447        0.3329309203
H             0.8687523365        0.3546006071        0.3807879816
H             0.5269535236        0.4144370421        0.5823059900
H             0.7279248603        0.5802218338        0.6666068091
H             0.9776362543        0.4132189891        0.5787985860
H             0.8701608013        0.5217581347        0.6302842506
H             0.6183965525        0.5250221851        0.8662825857
H             0.7275872557        0.4202498287        0.9188043377
H             0.9735503807        0.5870117461        0.8312737734
H             0.8676910390        0.4837928932        0.8866683150
H             0.6169529804        0.6961703290        0.1165952465
H             0.6298476097        0.9846999987        0.1402359362
H             0.8805869089        0.6922913031        0.1106052841
H             0.7723260927        0.9208123359        0.1647924146
H             0.5222958148        0.9108837079        0.3342666887
H             0.7233247992        0.7491674587        0.4210776193
H             0.8806551675        0.9192450739        0.2693234014
H             0.8642118341        0.8110984569        0.3843280494
H             0.6183047761        0.6881553971        0.6196275910
H             0.6325335699        0.9778022469        0.6402526327
H             0.9747088527        0.7517330508        0.5834329021
H             0.7739077084        0.9171912544        0.6692214034
H             0.5197373287        0.9195125828        0.8352018554
H             0.6304690230        0.6923903032        0.8880214122
H             0.8813406150        0.8619352203        0.8638367367
H             0.7716602559        0.7541537946        0.9142690916
H             0.1134217674        0.0237177652        0.1168507258
H             0.1324105479        0.3134783080        0.1373237618
H             0.3803206659        0.1502942142        0.1109201785
H             0.3654905242        0.3175381017        0.1334817444
H             0.1182212390        0.2460971252        0.2731334510
H             0.1328186919        0.0770565428        0.4774208227
H             0.3857312156        0.2481759792        0.2683769238
H             0.3654940447        0.1393683519        0.3827971733
H             0.1174186437        0.1423995152        0.6141983008
H             0.1377556024        0.2468479447        0.7292364029
H             0.3842744118        0.0769350172        0.5200935175
H             0.3702540119        0.3041456931        0.6325273113
H             0.1156076091        0.1874474927        0.8664852388
H             0.1348682201        0.0836037346        0.9820862381
H             0.3897339341        0.2466891581        0.7693062964
H             0.3694006838        0.1435135845        0.8838252185
H             0.1181745640        0.4817398481        0.1132353230
H             0.1312595538        0.6479379400        0.1361327954
H             0.3837799605        0.4838050669        0.1101511682
H             0.3663098611        0.5865577056        0.2244887801
H             0.1174220194        0.5801787184        0.2727628068
H             0.1351574870        0.4112122036        0.4774110827
H             0.3811340788        0.6392782717        0.3624507283
H             0.3674542732        0.3500432793        0.3827083554
H             0.1179456988        0.4728206328        0.6150329408
H             0.1320812203        0.5806086072        0.7298915626
H             0.3833576735        0.4709396968        0.6105045694
H             0.3662853146        0.5768670972        0.7266372845
H             0.1157157127        0.6443761754        0.8653465368
H             0.1349432877        0.3546450037        0.8868955637
H             0.3853320951        0.5193878211        0.8621506950
H             0.3693444775        0.4148029593        0.9748303422
H             0.1134094815        0.7518611181        0.0203824613
H             0.1316495182        0.8565775130        0.1349664542
H             0.3828807299        0.8156792430        0.1105827025
H             0.3648805935        0.9176440593        0.2250508773
H             0.1140976332        0.9108373599        0.2730648021
H             0.1300426902        0.8036780198        0.3873240376
H             0.3808131789        0.9713681385        0.3627725466
H             0.3648970183        0.7435224646        0.4771164646
H             0.1164907852        0.8079029236        0.6153703879
H             0.1321172122        0.9172723215        0.7284528818
H             0.3833959065        0.6807956759        0.6127786838
H             0.3631751115        0.8484248824        0.6340421250
H             0.1159506242        0.9796663281        0.8659221548
H             0.1334286890        0.8133660096        0.8851750803
H             0.3790620675        0.9135750251        0.7692130874
H             0.3665762095        0.7490970151        0.9749594403
H             0.6139675601        0.1514755082        0.1160904273
H             0.6354294266        0.3192580163        0.1375843514
H             0.8829474810        0.0871062749        0.0194764823
H             0.8681798203        0.2499451643        0.2256131751
H             0.6182761144        0.3108222669        0.3641533568
H             0.6327764281        0.1421044168        0.3851653073
H             0.8838382634        0.1872182792        0.3615852093
H             0.8657378701        0.0828636310        0.4766330289
H             0.6174403320        0.0816879207        0.5227330167
H             0.6349381690        0.3096925106        0.6365617871
H             0.8837701069        0.1436890890        0.6123914595
H             0.8678989481        0.3108674054        0.6320550427
H             0.6223135814        0.2506748864        0.7743594407
H             0.6324356203        0.0866180250        0.9814678115
H             0.8848690844        0.3168184736        0.8609924650
H             0.8643031817        0.1514492177        0.8835227638
H             0.6177862777        0.4864099577        0.1158054377
H             0.6345938152        0.5893805459        0.2311975755
H             0.8855955050        0.3582913006        0.1137072534
H             0.8676479203        0.5862876684        0.2260276176
H             0.6141082686        0.6440968624        0.3686642413
H             0.6352014573        0.4771451322        0.3877356608
H             0.8845336233        0.6449805677        0.3629682758
H             0.8678417513        0.4762335671        0.3814470430
H             0.6189002177        0.4161690898        0.5234895476
H             0.6358134891        0.5205682818        0.6385595842
H             0.8877377108        0.4148460803        0.5163786353
H             0.8680940591        0.6431378720        0.6310690694
H             0.6192580019        0.5833719314        0.7748384723
H             0.6373177931        0.3585657615        0.8888652171
H             0.8845800116        0.5854539030        0.7683133877
H             0.8702065806        0.4225861782        0.9776276501
H             0.6157218457        0.8171998721        0.1146906502
H             0.6307262306        0.9198318950        0.2292939137
H             0.8793776089        0.7529967418        0.0197182158
H             0.8624490171        0.8592993062        0.1329243217
H             0.6137345557        0.8531705896        0.3669499135
H             0.6339259439        0.7493272564        0.4839846860
H             0.8812889788        0.9784361403        0.3608388368
H             0.8675712363        0.7517950376        0.4756807258
H             0.6153783023        0.8094717872        0.6209828227
H             0.6305837495        0.9204305534        0.7326199776
H             0.8833127070        0.8123388101        0.6130403273
H             0.8658013422        0.9193251500        0.7277591738
H             0.6106963883        0.8598554252        0.8670221585
H             0.6312139072        0.7537599602        0.9786811456
H             0.8822314253        0.9833336831        0.8629998833
H             0.8626557459        0.6943070177        0.8823274169
End final coordinates


 
     init_run     :    101.27s CPU      4.17s WALL (       1 calls)
     electrons    :  51575.64s CPU   1798.87s WALL (      97 calls)
     update_pot   :    438.95s CPU     15.63s WALL (      11 calls)
     forces       :     46.69s CPU      1.59s WALL (      12 calls)
     stress       :    158.39s CPU     54.52s WALL (      12 calls)

     Called by init_run:
     aceinit0     :      0.00s CPU      0.00s WALL (       1 calls)
     wfcinit      :     60.52s CPU      2.11s WALL (       1 calls)
     potinit      :     35.88s CPU      1.33s WALL (       1 calls)
     hinit0       :      4.45s CPU      0.29s WALL (       1 calls)
     tsvdw_pair   :    366.65s CPU     12.44s WALL (     426 calls)

     Called by electrons:
     c_bands      :  34841.32s CPU   1201.11s WALL (     402 calls)
     sum_band     :   3314.15s CPU    111.37s WALL (     402 calls)
     v_of_rho     :  13766.83s CPU    496.08s WALL (     426 calls)
     mix_rho      :     56.31s CPU      1.96s WALL (     402 calls)
     tsvdw_rhotot :   2085.38s CPU     80.90s WALL (     426 calls)
     tsvdw_screen :   6225.99s CPU    230.83s WALL (     426 calls)
     tsvdw_veff   :     82.86s CPU      2.67s WALL (     426 calls)
     tsvdw_dveff  :   2605.66s CPU     87.56s WALL (     426 calls)
     tsvdw_energy :    545.13s CPU     17.60s WALL (     426 calls)

     Called by c_bands:
     init_us_2    :    126.84s CPU      4.44s WALL (     805 calls)
     init_us_2:cp :    126.71s CPU      4.43s WALL (     805 calls)
     regterg      :  34713.23s CPU   1196.26s WALL (     402 calls)

     Called by *egterg:
     rdiaghg      :   8221.98s CPU    317.70s WALL (    1578 calls)
     h_psi        :  20026.51s CPU    668.39s WALL (    1675 calls)
     g_psi        :     21.47s CPU      0.92s WALL (    1272 calls)

     Called by h_psi:
     h_psi:calbec :    254.89s CPU      8.23s WALL (    1675 calls)
     vloc_psi     :  18026.10s CPU    603.85s WALL (    1675 calls)
     add_vuspsi   :    149.85s CPU      5.04s WALL (    1675 calls)

     General routines
     calbec       :   1240.25s CPU     40.43s WALL (    3684 calls)
     fft          :    242.18s CPU      8.73s WALL (    3382 calls)
     ffts         :     26.66s CPU      0.92s WALL (     402 calls)
     fftw         :  14760.44s CPU    562.29s WALL (  647280 calls)
     fftcw        :    653.72s CPU     23.04s WALL (   37248 calls)
 
     Parallel routines

     EXX routines
     exx_grid     :      0.01s CPU      0.00s WALL (      12 calls)
     exxinit      :      7.56s CPU      0.27s WALL (      97 calls)
     vexx         :  19679.93s CPU    671.90s WALL (      97 calls)
     matcalc      :    893.59s CPU     29.18s WALL (    1779 calls)
     aceupdate    :    636.46s CPU     26.81s WALL (      97 calls)
     vexxace      :   1916.23s CPU     61.86s WALL (    1500 calls)
     aceinit      :  20433.58s CPU    702.65s WALL (      97 calls)
     SeA          :  19679.91s CPU    671.90s WALL (      97 calls)
     SeA:SCDM     :   1850.76s CPU     72.79s WALL (      97 calls)
     SeA:exx      :  16867.80s CPU    566.28s WALL (      97 calls)
     SeA:rot_D    :    950.57s CPU     32.46s WALL (      97 calls)
     SeA:decomp   :    636.45s CPU     26.81s WALL (      97 calls)
     SeA:MISC     :     10.60s CPU      0.36s WALL (     194 calls)
 
     PWSCF        :     20h29m CPU  51m55.34s WALL

 
   This run was terminated on:  11:14:40  20Jun2024            

=------------------------------------------------------------------------------=
   JOB DONE.
=------------------------------------------------------------------------------=
