
     Program PWSCF v.7.2 starts on 19Jun2024 at 23:28: 9 
        Git branch: drg.prod
        Last git commit: ab96b3061f2a70676ff2b72f19eba53893e0187b-dirty
        Last git commit date: Sat Jun 1 20:23:37 2024 -0700
        Last git commit subject: allow the use of very large ecutwfc

     This program is part of the open-source Quantum ESPRESSO suite
     for quantum simulation of materials; please cite
         "P. Giannozzi et al., J. Phys.:Condens. Matter 21 395502 (2009);
         "P. Giannozzi et al., J. Phys.:Condens. Matter 29 465901 (2017);
         "P. Giannozzi et al., J. Chem. Phys. 152 154105 (2020);
          URL http://www.quantum-espresso.org", 
     in publications or presentations arising from this work. More details at
     http://www.quantum-espresso.org/quote

     Parallel version (MPI & OpenMP), running on    2048 processor cores
     Number of MPI processes:                64
     Threads/MPI process:                    32

     MPI processes distributed on     8 nodes
     489663 MiB available memory on the printing compute node when the environment starts
 
     Waiting for input...
     Reading input from standard input

     Current dimensions of program PWSCF are:
     Max number of different atomic species (ntypx) = 10
     Max number of k-points (npk) =  40000
     Max angular momentum in pseudopotentials (lmaxx) =  4
     Message from routine scan_end:
     No INFO block end statement, possibly corrupted file

     IMPORTANT: XC functional enforced from input :
     Exchange-correlation= PBE0
                           (   6   4   8   4   0   0   0)
     EXX-fraction              =        0.25
     Any further DFT definition will be discarded
     Please, verify this is what you really want

     Message from routine iosys:
     Variable cell and hybrid XC little tested

     gamma-point specific algorithms are used
 
     R & G space division:  proc/nbgrp/npool/nimage =      64
     Subspace diagonalization in iterative solution of the eigenvalue problem:
     one sub-group per band group will be used
     custom distributed-memory algorithm (size of sub-group:  4*  4 procs)

     EXX: q-point mesh:     1    1    1
     EXX: grid of k+q points same as grid of k-points
 
     Parallelization info
     --------------------
     sticks:   dense  smooth     PW     G-vecs:    dense   smooth      PW
     Min         496     496    123                74000    74000    9248
     Max         498     498    126                74022    74022    9266
     Sum       31867   31867   7973              4736817  4736817  592171
 
     Using Slab Decomposition
 


     bravais-lattice index     =            8
     lattice parameter (alat)  =      26.9352  a.u.
     unit-cell volume          =   19086.1301 (a.u.)^3
     number of atoms/cell      =          288
     number of atomic types    =            2
     number of electrons       =       768.00
     number of Kohn-Sham states=          384
     kinetic-energy cutoff     =     150.0000  Ry
     charge density cutoff     =     600.0000  Ry
     cutoff for Fock operator  =     600.0000  Ry
     scf convergence threshold =      1.0E-06
     mixing beta               =       0.7000
     number of iterations used =            8  plain     mixing
     energy convergence thresh.=      1.0E-04
     force convergence thresh. =      1.0E-03
     press convergence thresh. =      5.0E-01
     Exchange-correlation= PBE0
                           (   6   4   8   4   0   0   0)
     EXX-fraction              =        0.25
     nstep                     =          300

     A smooth kinetic-energy cutoff is imposed at     130.0000 Ry
     height of the smooth step-function =             200.0000 Ry
     width of the smooth step-function  =              15.0000 Ry


     celldm(1)=  26.935165  celldm(2)=   0.920132  celldm(3)=   1.061473
     celldm(4)=   0.000000  celldm(5)=   0.000000  celldm(6)=   0.000000

     crystal axes: (cart. coord. in units of alat)
               a(1) = (   1.000000   0.000000   0.000000 )  
               a(2) = (   0.000000   0.920132   0.000000 )  
               a(3) = (   0.000000   0.000000   1.061473 )  

     reciprocal axes: (cart. coord. in units 2 pi/alat)
               b(1) = (  1.000000  0.000000  0.000000 )  
               b(2) = (  0.000000  1.086800  0.000000 )  
               b(3) = (  0.000000  0.000000  0.942087 )  


     PseudoPot. # 1 for H  read from file:
     ./H_HSCV_PBE-1.0.UPF
     MD5 check sum: 31544ba92ee05a06ae1d082ec2460d19
     Pseudo is Norm-conserving, Zval =  1.0
     Generated by new atomic code, or converted to UPF format
     Using radial grid of 2537 points,  0 beta functions with: 

     PseudoPot. # 2 for O  read from file:
     ./O_HSCV_PBE-1.0.UPF
     MD5 check sum: a5a52169c71ea0405bad903be39234ff
     Pseudo is Norm-conserving, Zval =  6.0
     Generated by new atomic code, or converted to UPF format
     Using radial grid of 2208 points,  1 beta functions with: 
                l(1) =   0

     atomic species   valence    mass     pseudopotential
        H              1.00     1.00800     H ( 1.00)
        O              6.00    15.99900     O ( 1.00)

     No symmetry found



   Cartesian axes

     site n.     atom                  positions (alat units)
         1           O   tau(   1) = (   0.0952648   0.0768953   0.0888394  )
         2           O   tau(   2) = (   0.1571937   0.2300428   0.1763919  )
         3           O   tau(   3) = (   0.4062021   0.0775070   0.0890769  )
         4           O   tau(   4) = (   0.3442613   0.2306512   0.1762757  )
         5           O   tau(   5) = (   0.0944377   0.2255916   0.3525295  )
         6           O   tau(   6) = (   0.1568187   0.0712932   0.4387044  )
         7           O   tau(   7) = (   0.4056467   0.2243929   0.3532873  )
         8           O   tau(   8) = (   0.3442276   0.0712228   0.4420353  )
         9           O   tau(   9) = (   0.0941051   0.0747293   0.6154457  )
        10           O   tau(  10) = (   0.1580034   0.2270073   0.7047386  )
        11           O   tau(  11) = (   0.4067515   0.0724649   0.6194707  )
        12           O   tau(  12) = (   0.3455479   0.2267161   0.7071830  )
        13           O   tau(  13) = (   0.0958831   0.2296420   0.8814466  )
        14           O   tau(  14) = (   0.1574164   0.0772797   0.9732341  )
        15           O   tau(  15) = (   0.4104368   0.2280549   0.8834617  )
        16           O   tau(  16) = (   0.3452696   0.0766221   0.9731699  )
        17           O   tau(  17) = (   0.0946251   0.3832449   0.0871624  )
        18           O   tau(  18) = (   0.1564605   0.5370594   0.1743561  )
        19           O   tau(  19) = (   0.4048854   0.3841842   0.0872260  )
        20           O   tau(  20) = (   0.3444733   0.5390954   0.1746700  )
        21           O   tau(  21) = (   0.0920521   0.5332222   0.3512761  )
        22           O   tau(  22) = (   0.1546688   0.3800355   0.4385722  )
        23           O   tau(  23) = (   0.4061852   0.5342556   0.3523403  )
        24           O   tau(  24) = (   0.3427745   0.3799400   0.4387301  )
        25           O   tau(  25) = (   0.0933695   0.3786224   0.6157341  )
        26           O   tau(  26) = (   0.1539345   0.5318587   0.7050808  )
        27           O   tau(  27) = (   0.4053599   0.3800933   0.6161816  )
        28           O   tau(  28) = (   0.3413223   0.5320134   0.7060708  )
        29           O   tau(  29) = (   0.0919434   0.5366129   0.8820139  )
        30           O   tau(  30) = (   0.1578049   0.3840680   0.9705898  )
        31           O   tau(  31) = (   0.4048049   0.5362374   0.8833926  )
        32           O   tau(  32) = (   0.3455874   0.3811273   0.9700334  )
        33           O   tau(  33) = (   0.0940282   0.6907073   0.0851888  )
        34           O   tau(  34) = (   0.1564283   0.8424071   0.1756754  )
        35           O   tau(  35) = (   0.4073667   0.6917834   0.0859998  )
        36           O   tau(  36) = (   0.3440249   0.8434273   0.1753140  )
        37           O   tau(  37) = (   0.0922735   0.8378550   0.3520194  )
        38           O   tau(  38) = (   0.1535964   0.6855317   0.4421088  )
        39           O   tau(  39) = (   0.4038777   0.8379940   0.3528345  )
        40           O   tau(  40) = (   0.3412669   0.6853485   0.4424476  )
        41           O   tau(  41) = (   0.0912933   0.6869895   0.6192588  )
        42           O   tau(  42) = (   0.1548981   0.8416263   0.7054658  )
        43           O   tau(  43) = (   0.4043166   0.6859233   0.6193158  )
        44           O   tau(  44) = (   0.3423304   0.8397884   0.7069218  )
        45           O   tau(  45) = (   0.0952227   0.8451195   0.8832123  )
        46           O   tau(  46) = (   0.1553032   0.6900604   0.9697580  )
        47           O   tau(  47) = (   0.4051441   0.8431689   0.8841163  )
        48           O   tau(  48) = (   0.3426099   0.6893446   0.9712408  )
        49           O   tau(  49) = (   0.5937177   0.0792429   0.0923104  )
        50           O   tau(  50) = (   0.6562217   0.2347275   0.1771715  )
        51           O   tau(  51) = (   0.9083180   0.0813017   0.0887929  )
        52           O   tau(  52) = (   0.8442820   0.2349378   0.1761918  )
        53           O   tau(  53) = (   0.5935846   0.2259710   0.3535163  )
        54           O   tau(  54) = (   0.6557747   0.0729626   0.4426093  )
        55           O   tau(  55) = (   0.9069790   0.2301059   0.3532316  )
        56           O   tau(  56) = (   0.8431990   0.0770060   0.4420587  )
        57           O   tau(  57) = (   0.5947321   0.0743764   0.6206013  )
        58           O   tau(  58) = (   0.6575831   0.2283068   0.7076389  )
        59           O   tau(  59) = (   0.9059865   0.0795043   0.6188292  )
        60           O   tau(  60) = (   0.8450903   0.2341422   0.7070026  )
        61           O   tau(  61) = (   0.5980381   0.2302839   0.8860861  )
        62           O   tau(  62) = (   0.6579808   0.0766756   0.9768505  )
        63           O   tau(  63) = (   0.9083207   0.2359054   0.8838571  )
        64           O   tau(  64) = (   0.8452972   0.0832775   0.9735808  )
        65           O   tau(  65) = (   0.5926185   0.3877821   0.0894606  )
        66           O   tau(  66) = (   0.6562757   0.5403833   0.1782374  )
        67           O   tau(  67) = (   0.9064663   0.3882363   0.0884418  )
        68           O   tau(  68) = (   0.8442077   0.5428033   0.1751627  )
        69           O   tau(  69) = (   0.5939548   0.5332595   0.3550112  )
        70           O   tau(  70) = (   0.6557580   0.3789156   0.4419849  )
        71           O   tau(  71) = (   0.9049928   0.5400932   0.3526929  )
        72           O   tau(  72) = (   0.8436232   0.3846238   0.4387859  )
        73           O   tau(  73) = (   0.5932037   0.3804798   0.6190633  )
        74           O   tau(  74) = (   0.6551048   0.5334453   0.7092383  )
        75           O   tau(  75) = (   0.9060947   0.3862878   0.6153477  )
        76           O   tau(  76) = (   0.8425924   0.5370810   0.7059956  )
        77           O   tau(  77) = (   0.5924805   0.5372109   0.8855806  )
        78           O   tau(  78) = (   0.6565753   0.3854431   0.9741731  )
        79           O   tau(  79) = (   0.9039731   0.5417561   0.8828169  )
        80           O   tau(  80) = (   0.8439835   0.3884618   0.9730851  )
        81           O   tau(  81) = (   0.5945985   0.6922760   0.0885293  )
        82           O   tau(  82) = (   0.6557660   0.8451515   0.1782511  )
        83           O   tau(  83) = (   0.9055702   0.6963274   0.0853628  )
        84           O   tau(  84) = (   0.8431792   0.8486122   0.1753139  )
        85           O   tau(  85) = (   0.5913209   0.8399048   0.3550241  )
        86           O   tau(  86) = (   0.6526992   0.6868199   0.4452793  )
        87           O   tau(  87) = (   0.9047854   0.8440613   0.3529038  )
        88           O   tau(  88) = (   0.8406671   0.6915983   0.4429660  )
        89           O   tau(  89) = (   0.5926277   0.6878965   0.6227087  )
        90           O   tau(  90) = (   0.6565357   0.8412501   0.7111960  )
        91           O   tau(  91) = (   0.9038482   0.6928463   0.6195871  )
        92           O   tau(  92) = (   0.8445425   0.8471544   0.7090323  )
        93           O   tau(  93) = (   0.5932530   0.8448433   0.8877746  )
        94           O   tau(  94) = (   0.6547499   0.6907174   0.9730135  )
        95           O   tau(  95) = (   0.9076275   0.8500374   0.8854300  )
        96           O   tau(  96) = (   0.8418525   0.6961845   0.9704268  )
        97           H   tau(  97) = (   0.0257726   0.0762549   0.0896950  )
        98           H   tau(  98) = (   0.1333185   0.1740729   0.1427556  )
        99           H   tau(  99) = (   0.3838941   0.0783481   0.0233029  )
       100           H   tau( 100) = (   0.2747723   0.2316437   0.1749487  )
       101           H   tau( 101) = (   0.1182088   0.1677839   0.3828000  )
       102           H   tau( 102) = (   0.1323197   0.0140693   0.4079028  )
       103           H   tau( 103) = (   0.4750683   0.2253523   0.3516321  )
       104           H   tau( 104) = (   0.2748424   0.0725286   0.4403774  )
       105           H   tau( 105) = (   0.0247817   0.0781362   0.6173504  )
       106           H   tau( 106) = (   0.2274469   0.2268156   0.7066266  )
       107           H   tau( 107) = (   0.3824081   0.0153552   0.6506879  )
       108           H   tau( 108) = (   0.3686836   0.1704630   0.6735761  )
       109           H   tau( 109) = (   0.0264583   0.2306219   0.8825946  )
       110           H   tau( 110) = (   0.2268473   0.0778651   0.9744602  )
       111           H   tau( 111) = (   0.4798711   0.2286358   0.8822294  )
       112           H   tau( 112) = (   0.3678178   0.0201519   0.9395416  )
       113           H   tau( 113) = (   0.1187593   0.3843055   0.0221331  )
       114           H   tau( 114) = (   0.2258197   0.5401403   0.1743253  )
       115           H   tau( 115) = (   0.4742622   0.3868495   0.0885323  )
       116           H   tau( 116) = (   0.3694333   0.5961738   0.1439047  )
       117           H   tau( 117) = (   0.1151591   0.4753462   0.3820123  )
       118           H   tau( 118) = (   0.1314295   0.3220177   0.4081686  )
       119           H   tau( 119) = (   0.3820123   0.4775442   0.3842805  )
       120           H   tau( 120) = (   0.2733521   0.3780493   0.4378063  )
       121           H   tau( 121) = (   0.1182700   0.3231707   0.6494259  )
       122           H   tau( 122) = (   0.1306096   0.5892518   0.6737678  )
       123           H   tau( 123) = (   0.3809110   0.3813426   0.5512320  )
       124           H   tau( 124) = (   0.2718510   0.5328494   0.7075664  )
       125           H   tau( 125) = (   0.1169624   0.4812588   0.9156358  )
       126           H   tau( 126) = (   0.2271939   0.3815630   0.9694846  )
       127           H   tau( 127) = (   0.4742670   0.5355008   0.8835415  )
       128           H   tau( 128) = (   0.3708073   0.3242196   0.9391609  )
       129           H   tau( 129) = (   0.0246572   0.6925980   0.0834731  )
       130           H   tau( 130) = (   0.2258847   0.8418481   0.1754040  )
       131           H   tau( 131) = (   0.4768211   0.6933441   0.0875750  )
       132           H   tau( 132) = (   0.3676074   0.9014970   0.1453892  )
       133           H   tau( 133) = (   0.0228834   0.8404905   0.3500683  )
       134           H   tau( 134) = (   0.1312080   0.6293221   0.4079976  )
       135           H   tau( 135) = (   0.3794652   0.7823641   0.3864713  )
       136           H   tau( 136) = (   0.2718322   0.6854285   0.4440477  )
       137           H   tau( 137) = (   0.1144611   0.6877251   0.5537799  )
       138           H   tau( 138) = (   0.1315315   0.8986657   0.6734410  )
       139           H   tau( 139) = (   0.4737032   0.6852065   0.6212847  )
       140           H   tau( 140) = (   0.2728789   0.8393950   0.7057758  )
       141           H   tau( 141) = (   0.0258612   0.8477370   0.8854448  )
       142           H   tau( 142) = (   0.2247738   0.6907811   0.9695746  )
       143           H   tau( 143) = (   0.3820286   0.7856590   0.9154935  )
       144           H   tau( 144) = (   0.3664893   0.6319106   0.9402237  )
       145           H   tau( 145) = (   0.5242592   0.0809049   0.0920183  )
       146           H   tau( 146) = (   0.7256363   0.2358608   0.1757523  )
       147           H   tau( 147) = (   0.8826900   0.0243569   0.1192832  )
       148           H   tau( 148) = (   0.8677480   0.1778611   0.1443572  )
       149           H   tau( 149) = (   0.6178289   0.2301777   0.2885674  )
       150           H   tau( 150) = (   0.6309990   0.0169133   0.4099758  )
       151           H   tau( 151) = (   0.9763498   0.2263926   0.3534538  )
       152           H   tau( 152) = (   0.7737617   0.0753333   0.4432035  )
       153           H   tau( 153) = (   0.5253359   0.0733271   0.6189219  )
       154           H   tau( 154) = (   0.6337050   0.1722450   0.6742667  )
       155           H   tau( 155) = (   0.8819580   0.0245299   0.6537952  )
       156           H   tau( 156) = (   0.7756722   0.2337946   0.7058947  )
       157           H   tau( 157) = (   0.6202756   0.1728361   0.9180770  )
       158           H   tau( 158) = (   0.6331570   0.0196185   0.9459601  )
       159           H   tau( 159) = (   0.8838851   0.2376459   0.8188400  )
       160           H   tau( 160) = (   0.7758605   0.0826846   0.9739115  )
       161           H   tau( 161) = (   0.6171521   0.3887109   0.0245400  )
       162           H   tau( 162) = (   0.7257229   0.5403786   0.1792818  )
       163           H   tau( 163) = (   0.9758442   0.3858466   0.0881145  )
       164           H   tau( 164) = (   0.8679985   0.4850547   0.1448138  )
       165           H   tau( 165) = (   0.5244941   0.5343312   0.3549384  )
       166           H   tau( 166) = (   0.7251223   0.3814449   0.4399333  )
       167           H   tau( 167) = (   0.9744348   0.5395853   0.3537490  )
       168           H   tau( 168) = (   0.8685443   0.3289439   0.4056056  )
       169           H   tau( 169) = (   0.5238315   0.3810379   0.6160920  )
       170           H   tau( 170) = (   0.7245107   0.5326338   0.7064874  )
       171           H   tau( 171) = (   0.9754751   0.3830411   0.6142411  )
       172           H   tau( 172) = (   0.8678882   0.4826277   0.6709925  )
       173           H   tau( 173) = (   0.6166421   0.4803271   0.9173630  )
       174           H   tau( 174) = (   0.7260598   0.3857935   0.9733872  )
       175           H   tau( 175) = (   0.9733353   0.5399767   0.8814447  )
       176           H   tau( 176) = (   0.8667928   0.4460494   0.9416492  )
       177           H   tau( 177) = (   0.6180332   0.6372374   0.1238986  )
       178           H   tau( 178) = (   0.6315241   0.9032088   0.1488000  )
       179           H   tau( 179) = (   0.8824579   0.6390477   0.1170330  )
       180           H   tau( 180) = (   0.7737582   0.8468447   0.1756865  )
       181           H   tau( 181) = (   0.5218930   0.8374218   0.3552196  )
       182           H   tau( 182) = (   0.7220786   0.6887431   0.4460437  )
       183           H   tau( 183) = (   0.8809854   0.8467367   0.2877385  )
       184           H   tau( 184) = (   0.8637350   0.7485636   0.4106895  )
       185           H   tau( 185) = (   0.6166055   0.6317605   0.6558012  )
       186           H   tau( 186) = (   0.6327886   0.8976794   0.6785265  )
       187           H   tau( 187) = (   0.9733053   0.6926444   0.6202604  )
       188           H   tau( 188) = (   0.7751736   0.8454552   0.7115238  )
       189           H   tau( 189) = (   0.5238544   0.8430708   0.8868819  )
       190           H   tau( 190) = (   0.6308735   0.6333612   0.9419009  )
       191           H   tau( 191) = (   0.8821759   0.7945395   0.9184550  )
       192           H   tau( 192) = (   0.7724306   0.6929649   0.9705549  )
       193           H   tau( 193) = (   0.1164983   0.0191742   0.1211357  )
       194           H   tau( 194) = (   0.1332561   0.2858256   0.1426589  )
       195           H   tau( 195) = (   0.3816680   0.1350813   0.1193160  )
       196           H   tau( 196) = (   0.3658056   0.2883258   0.1440943  )
       197           H   tau( 197) = (   0.1181279   0.2257219   0.2871957  )
       198           H   tau( 198) = (   0.1324104   0.0713323   0.5037267  )
       199           H   tau( 199) = (   0.3841115   0.2266315   0.2872931  )
       200           H   tau( 200) = (   0.3661149   0.1280707   0.4086137  )
       201           H   tau( 201) = (   0.1175911   0.1312046   0.6483979  )
       202           H   tau( 202) = (   0.1360442   0.2269484   0.7706527  )
       203           H   tau( 203) = (   0.3825733   0.0712863   0.5544054  )
       204           H   tau( 204) = (   0.3681059   0.2822543   0.6721842  )
       205           H   tau( 205) = (   0.1163718   0.1729271   0.9158296  )
       206           H   tau( 206) = (   0.1358069   0.0767558   1.0392526  )
       207           H   tau( 207) = (   0.3888743   0.2279236   0.8174364  )
       208           H   tau( 208) = (   0.3705483   0.1314803   0.9389385  )
       209           H   tau( 209) = (   0.1186506   0.4406245   0.1181720  )
       210           H   tau( 210) = (   0.1338436   0.5937558   0.1412358  )
       211           H   tau( 211) = (   0.3828754   0.4420499   0.1187380  )
       212           H   tau( 212) = (   0.3679298   0.5391955   0.2400207  )
       213           H   tau( 213) = (   0.1166311   0.5332842   0.2863841  )
       214           H   tau( 214) = (   0.1319473   0.3785698   0.5042150  )
       215           H   tau( 215) = (   0.3812765   0.5888102   0.3873823  )
       216           H   tau( 216) = (   0.3649820   0.3223782   0.4068684  )
       217           H   tau( 217) = (   0.1163459   0.4345416   0.6498896  )
       218           H   tau( 218) = (   0.1304118   0.5342902   0.7704273  )
       219           H   tau( 219) = (   0.3805144   0.4363880   0.6483927  )
       220           H   tau( 220) = (   0.3631106   0.5333341   0.7719769  )
       221           H   tau( 221) = (   0.1166343   0.5928261   0.9144786  )
       222           H   tau( 222) = (   0.1357073   0.3269311   0.9379862  )
       223           H   tau( 223) = (   0.3845958   0.4781779   0.9157846  )
       224           H   tau( 224) = (   0.3681719   0.3805021   1.0356388  )
       225           H   tau( 225) = (   0.1156412   0.6906469   0.0191389  )
       226           H   tau( 226) = (   0.1355380   0.7858535   0.1411617  )
       227           H   tau( 227) = (   0.3854441   0.7490060   0.1188026  )
       228           H   tau( 228) = (   0.3671000   0.8430880   0.2408302  )
       229           H   tau( 229) = (   0.1146176   0.8387558   0.2862468  )
       230           H   tau( 230) = (   0.1297149   0.7407181   0.4072401  )
       231           H   tau( 231) = (   0.3809878   0.8938567   0.3872696  )
       232           H   tau( 232) = (   0.3633324   0.6854018   0.5082652  )
       233           H   tau( 233) = (   0.1161065   0.7439959   0.6501395  )
       234           H   tau( 234) = (   0.1317271   0.8447718   0.7708989  )
       235           H   tau( 235) = (   0.3825750   0.6285726   0.6518800  )
       236           H   tau( 236) = (   0.3636487   0.7820762   0.6746913  )
       237           H   tau( 237) = (   0.1181323   0.9013003   0.9170609  )
       238           H   tau( 238) = (   0.1342836   0.7479250   0.9375263  )
       239           H   tau( 239) = (   0.3814369   0.8406212   0.8189104  )
       240           H   tau( 240) = (   0.3673584   0.6889730   1.0361229  )
       241           H   tau( 241) = (   0.6154147   0.1373187   0.1235523  )
       242           H   tau( 242) = (   0.6343923   0.2922001   0.1448494  )
       243           H   tau( 243) = (   0.8846199   0.0814325   0.0235146  )
       244           H   tau( 244) = (   0.8678877   0.2318788   0.2414464  )
       245           H   tau( 245) = (   0.6169348   0.2826850   0.3861760  )
       246           H   tau( 246) = (   0.6320556   0.1284580   0.4082224  )
       247           H   tau( 247) = (   0.8838640   0.1737935   0.3866562  )
       248           H   tau( 248) = (   0.8643264   0.0778025   0.5082130  )
       249           H   tau( 249) = (   0.6160008   0.0734216   0.5544902  )
       250           H   tau( 250) = (   0.6318510   0.2834779   0.6741904  )
       251           H   tau( 251) = (   0.8828809   0.1359167   0.6520562  )
       252           H   tau( 252) = (   0.8656449   0.2905994   0.6721285  )
       253           H   tau( 253) = (   0.6215784   0.2277001   0.8208526  )
       254           H   tau( 254) = (   0.6335529   0.0767609   1.0418217  )
       255           H   tau( 255) = (   0.8854429   0.2932079   0.9156362  )
       256           H   tau( 256) = (   0.8657285   0.1405204   0.9399786  )
       257           H   tau( 257) = (   0.6166497   0.4447306   0.1211195  )
       258           H   tau( 258) = (   0.6347212   0.5384215   0.2442743  )
       259           H   tau( 259) = (   0.8849581   0.3309245   0.1213081  )
       260           H   tau( 260) = (   0.8678460   0.5419950   0.2404671  )
       261           H   tau( 261) = (   0.6144635   0.5897161   0.3899189  )
       262           H   tau( 262) = (   0.6332662   0.4361093   0.4095877  )
       263           H   tau( 263) = (   0.8840581   0.5966775   0.3870794  )
       264           H   tau( 264) = (   0.8665328   0.4408883   0.4051845  )
       265           H   tau( 265) = (   0.6158666   0.3808318   0.5533981  )
       266           H   tau( 266) = (   0.6326661   0.4770514   0.6754769  )
       267           H   tau( 267) = (   0.8849158   0.3859190   0.5491745  )
       268           H   tau( 268) = (   0.8649479   0.5941009   0.6733218  )
       269           H   tau( 269) = (   0.6168730   0.5346797   0.8205855  )
       270           H   tau( 270) = (   0.6366289   0.3275894   0.9414092  )
       271           H   tau( 271) = (   0.8826383   0.5394497   0.8167061  )
       272           H   tau( 272) = (   0.8678110   0.3897471   1.0382928  )
       273           H   tau( 273) = (   0.6177260   0.7486377   0.1218786  )
       274           H   tau( 274) = (   0.6315269   0.8438071   0.2432799  )
       275           H   tau( 275) = (   0.8809290   0.6944519   0.0204332  )
       276           H   tau( 276) = (   0.8643950   0.7917237   0.1414914  )
       277           H   tau( 277) = (   0.6131997   0.7831674   0.3885508  )
       278           H   tau( 278) = (   0.6322465   0.6876257   0.5116762  )
       279           H   tau( 279) = (   0.8820198   0.9013350   0.3849776  )
       280           H   tau( 280) = (   0.8650660   0.6942610   0.5079482  )
       281           H   tau( 281) = (   0.6163017   0.7435104   0.6568910  )
       282           H   tau( 282) = (   0.6321813   0.8439271   0.7762198  )
       283           H   tau( 283) = (   0.8833765   0.7498525   0.6535622  )
       284           H   tau( 284) = (   0.8665780   0.8483920   0.7749118  )
       285           H   tau( 285) = (   0.6141519   0.7867485   0.9198226  )
       286           H   tau( 286) = (   0.6321516   0.6894169   1.0387315  )
       287           H   tau( 287) = (   0.8841891   0.9062570   0.9188647  )
       288           H   tau( 288) = (   0.8642426   0.6396233   0.9369578  )

     number of k points=     1
                       cart. coord. in units 2pi/alat
        k(    1) = (   0.0000000   0.0000000   0.0000000), wk =   2.0000000

     Dense  grid:  2368409 G-vectors     FFT dimensions: ( 216, 200, 225)

     Estimated max dynamical RAM per process >     926.26 MB

     Estimated total dynamical RAM >      57.89 GB
 
   TS-vdW initialization
   ---------------------
 
   Determining TS-vdW damping function parameters...
     ddamp = 20.000000
     sR =  0.960000
   Initializing species #   1 with atomic symbol H  
     Equispaced/Uniform radial atomic grid detected...
     Radial grid parameter: NrgpA is  2537.
     Radial grid parameter: gfctrA is  1.000000.
     Radial grid parameter: dxA is  0.010000.
     The number of valence electrons, eref, is         1.000000005136149.
     The reference free atom volume, vref, is        10.488055754397561 bohr^3.
     Determining intial radial grid cutoff...
     An acceptable radial grid cutoff was determined by retaining  795 of 2537 radial grid points.
     The magnitude of the atomic pseudo-density at the radial grid cutoff is  2.669801E-07.
     Using this radial grid cutoff value of         7.940000000000000 au:
     The free atom volume computed with this cutoff is        10.384749018802095 bohr^3 with an error of  0.985%.
     Linear grid spacing was computed as:         0.008940000000000 bohr.
     The free atom static dipole polarizability is      4.500000 bohr^3.
     The free atom homonuclear C6 coefficient is      6.500000 Hartree bohr^6.
     The free atom vdW radius is      3.100000 bohr.
   Initializing species #   2 with atomic symbol O  
     Equispaced/Uniform radial atomic grid detected...
     Radial grid parameter: NrgpA is  2208.
     Radial grid parameter: gfctrA is  1.000000.
     Radial grid parameter: dxA is  0.010000.
     The number of valence electrons, eref, is         6.000000039411558.
     The reference free atom volume, vref, is        23.754493175219807 bohr^3.
     Determining intial radial grid cutoff...
     An acceptable radial grid cutoff was determined by retaining  617 of 2208 radial grid points.
     The magnitude of the atomic pseudo-density at the radial grid cutoff is  2.530054E-06.
     Using this radial grid cutoff value of         6.160000000000000 au:
     The free atom volume computed with this cutoff is        23.522305161381485 bohr^3 with an error of  0.977%.
     Linear grid spacing was computed as:         0.007160000000000 bohr.
     The free atom static dipole polarizability is      5.400000 bohr^3.
     The free atom homonuclear C6 coefficient is     15.600000 Hartree bohr^6.
     The free atom vdW radius is      3.190000 bohr.
     EXX: ACE will be initialized later

     Initial potential from superposition of free atoms

     starting charge     767.9981, renormalised to     768.0000
     Starting wfcs are  576 randomized atomic wfcs

     total cpu time spent up to now is        4.6 secs

     per-process dynamical memory:   160.1 Mb

     Self-consistent Calculation

     iteration #  1     ecut=   150.00 Ry     beta= 0.70
     Davidson diagonalization with overlap
     ethr =  1.00E-02,  avg # of iterations =  2.0

     total cpu time spent up to now is        8.4 secs

     total energy              =   -3293.33157023 Ry
     estimated scf accuracy    <      29.62785447 Ry

     iteration #  2     ecut=   150.00 Ry     beta= 0.70
     Davidson diagonalization with overlap
     ethr =  3.86E-03,  avg # of iterations =  2.0

     total cpu time spent up to now is       12.6 secs

     total energy              =   -3302.49768578 Ry
     estimated scf accuracy    <      14.16083196 Ry

     iteration #  3     ecut=   150.00 Ry     beta= 0.70
     Davidson diagonalization with overlap
     ethr =  1.84E-03,  avg # of iterations =  2.0

     total cpu time spent up to now is       16.7 secs

     total energy              =   -3304.53686659 Ry
     estimated scf accuracy    <       0.25610367 Ry

     iteration #  4     ecut=   150.00 Ry     beta= 0.70
     Davidson diagonalization with overlap
     ethr =  3.33E-05,  avg # of iterations =  3.0

     total cpu time spent up to now is       21.2 secs

     total energy              =   -3304.66186895 Ry
     estimated scf accuracy    <       0.20708474 Ry

     iteration #  5     ecut=   150.00 Ry     beta= 0.70
     Davidson diagonalization with overlap
     ethr =  2.70E-05,  avg # of iterations =  1.0

     total cpu time spent up to now is       24.0 secs

     total energy              =   -3304.66009842 Ry
     estimated scf accuracy    <       0.03753548 Ry

     iteration #  6     ecut=   150.00 Ry     beta= 0.70
     Davidson diagonalization with overlap
     ethr =  4.89E-06,  avg # of iterations =  2.0

     total cpu time spent up to now is       27.4 secs

     total energy              =   -3304.66585940 Ry
     estimated scf accuracy    <       0.00196734 Ry

     iteration #  7     ecut=   150.00 Ry     beta= 0.70
     Davidson diagonalization with overlap
     ethr =  2.56E-07,  avg # of iterations =  3.0

     total cpu time spent up to now is       31.4 secs

     total energy              =   -3304.66682923 Ry
     estimated scf accuracy    <       0.00043220 Ry

     iteration #  8     ecut=   150.00 Ry     beta= 0.70
     Davidson diagonalization with overlap
     ethr =  5.63E-08,  avg # of iterations =  1.0

     total cpu time spent up to now is       34.2 secs

     total energy              =   -3304.66678936 Ry
     estimated scf accuracy    <       0.00012001 Ry

     iteration #  9     ecut=   150.00 Ry     beta= 0.70
     Davidson diagonalization with overlap
     ethr =  1.56E-08,  avg # of iterations =  2.0

     total cpu time spent up to now is       37.9 secs

     total energy              =   -3304.66682074 Ry
     estimated scf accuracy    <       0.00000119 Ry

     iteration # 10     ecut=   150.00 Ry     beta= 0.70
     Davidson diagonalization with overlap
     ethr =  1.55E-10,  avg # of iterations =  3.0

     total cpu time spent up to now is       41.9 secs

     total energy              =   -3304.66681979 Ry
     estimated scf accuracy    <       0.00000365 Ry

     iteration # 11     ecut=   150.00 Ry     beta= 0.70
     Davidson diagonalization with overlap
     ethr =  1.55E-10,  avg # of iterations =  2.0

     total cpu time spent up to now is       45.4 secs

     End of self-consistent calculation

          k = 0.0000 0.0000 0.0000 (296086 PWs)   bands (ev):

   -21.6723 -21.5228 -21.5204 -21.5041 -21.5024 -21.4734 -21.4717 -21.3646
   -21.3620 -21.3602 -21.3579 -21.3552 -21.3540 -21.3525 -21.3496 -21.3177
   -21.3155 -21.3152 -21.3125 -21.2684 -21.2644 -21.2184 -21.2142 -21.2120
   -21.2117 -21.2102 -21.2091 -21.2067 -21.2065 -21.1464 -21.1431 -21.1088
   -21.1048 -21.0640 -21.0627 -21.0618 -21.0604 -21.0575 -21.0571 -21.0556
   -21.0544 -21.0535 -21.0513 -20.9353 -20.9341 -20.9307 -20.9295 -20.8464
   -20.8430 -20.7596 -20.7573 -20.7551 -20.7521 -20.6317 -20.6296 -20.6295
   -20.6287 -20.6279 -20.6249 -20.6228 -20.6219 -20.6204 -20.6186 -20.5740
   -20.5707 -20.5340 -20.5316 -20.4668 -20.4642 -20.4626 -20.4599 -20.4591
   -20.4582 -20.4557 -20.4530 -20.4001 -20.3944 -20.3459 -20.3434 -20.3421
   -20.3393 -20.3040 -20.3021 -20.2991 -20.2951 -20.2925 -20.2899 -20.2889
   -20.2874 -20.1604 -20.1590 -20.1211 -20.1202 -20.1017 -20.0996 -19.9124
    -9.1491  -9.1451  -9.1402  -9.1329  -9.1286  -9.1217  -9.1181  -9.1105
    -9.1098  -9.1016  -9.0976  -9.0917  -9.0911  -9.0846  -9.0806  -9.0759
    -9.0718  -9.0698  -9.0656  -9.0623  -9.0586  -9.0549  -9.0476  -9.0460
    -9.0438  -9.0414  -9.0400  -9.0374  -9.0328  -9.0293  -9.0251  -9.0212
    -9.0205  -9.0168  -9.0149  -9.0127  -9.0100  -9.0074  -9.0063  -9.0011
    -8.9998  -8.9981  -8.9917  -8.9891  -8.9878  -8.9850  -8.9839  -8.9831
    -8.9783  -8.9766  -8.9740  -8.9707  -8.9687  -8.9681  -8.9648  -8.9616
    -8.9596  -8.9585  -8.9536  -8.9514  -8.9476  -8.9444  -8.9420  -8.9399
    -8.9369  -8.9335  -8.9331  -8.9315  -8.9272  -8.9247  -8.9234  -8.9212
    -8.9189  -8.9167  -8.9126  -8.9085  -8.9064  -8.9043  -8.9018  -8.8977
    -8.8929  -8.8885  -8.8867  -8.8832  -8.8826  -8.8756  -8.8696  -8.8638
    -8.8618  -8.8601  -8.8526  -8.8516  -8.8459  -8.8236  -8.8223  -8.8154
    -7.1968  -6.8815  -6.8554  -6.8243  -6.7907  -6.7482  -6.7348  -6.5879
    -6.5804  -6.5466  -6.5314  -6.5266  -6.5025  -6.4928  -6.4670  -6.4636
    -6.4528  -6.4156  -6.4000  -6.3834  -6.3655  -6.3223  -6.2971  -6.2920
    -6.2694  -6.2428  -6.2256  -6.2036  -6.1836  -6.1706  -6.1581  -6.0808
    -6.0615  -6.0259  -5.9989  -5.9904  -5.9811  -5.9679  -5.9415  -5.9182
    -5.9068  -5.8904  -5.8834  -5.7679  -5.7668  -5.7153  -5.6911  -5.6150
    -5.4723  -5.3504  -5.3361  -5.3347  -5.3137  -5.1858  -5.1701  -5.1541
    -5.1291  -5.1127  -5.0903  -5.0855  -5.0645  -5.0461  -5.0433  -4.9943
    -4.9888  -4.9404  -4.9206  -4.9031  -4.8615  -4.8578  -4.8463  -4.8253
    -4.8179  -4.8040  -4.7794  -4.7178  -4.7140  -4.6909  -4.6783  -4.6633
    -4.6241  -4.6037  -4.5872  -4.5772  -4.5628  -4.5518  -4.5371  -4.5142
    -4.4952  -4.3691  -4.3465  -4.2956  -4.2768  -4.2494  -4.2261  -3.9058
    -3.5911  -3.5792  -3.5731  -3.5381  -3.5344  -3.5249  -3.5160  -3.5128
    -3.5057  -3.4965  -3.4936  -3.4795  -3.4773  -3.4664  -3.4657  -3.4564
    -3.4547  -3.4453  -3.4394  -3.4330  -3.4242  -3.4190  -3.4174  -3.4117
    -3.4041  -3.4025  -3.3911  -3.3878  -3.3816  -3.3783  -3.3717  -3.3647
    -3.3585  -3.3568  -3.3516  -3.3487  -3.3468  -3.3418  -3.3379  -3.3304
    -3.3264  -3.3182  -3.3132  -3.3105  -3.3019  -3.2956  -3.2930  -3.2882
    -3.2826  -3.2779  -3.2730  -3.2683  -3.2662  -3.2560  -3.2536  -3.2496
    -3.2442  -3.2412  -3.2359  -3.2318  -3.2250  -3.2236  -3.2194  -3.2156
    -3.2082  -3.2025  -3.1998  -3.1951  -3.1841  -3.1785  -3.1751  -3.1651
    -3.1641  -3.1604  -3.1591  -3.1569  -3.1500  -3.1317  -3.1310  -3.1270
    -3.1215  -3.1168  -3.1089  -3.1022  -3.0962  -3.0850  -3.0831  -3.0807
    -3.0717  -3.0646  -3.0612  -3.0575  -3.0468  -3.0328  -3.0278  -3.0243

     highest occupied level (ev):    -3.0243

!    total energy              =   -3304.66682010 Ry
     estimated scf accuracy    <       0.00000015 Ry

     convergence has been achieved in  11 iterations

     Using ACE for calculation of exact exchange
     ACE projected onto   384 (nbndproj) and applied to   384 (nbnd) bands
 
     -------------------------------------------------------
                       ____          _                      
                      / ___|  ___   / \                     
                      \___ \ / _ \ / _ \                    
                       ___) |  __// ___ \                   
                      |____/ \___/_/   \_\                  
 
       SeA: High-Throughput Hybrid DFT via SCDM + exxl + ACE
 
       Settings: use_cholesky=F sea_thr_outer=0.0000E+00
       For detailed exxl settings, see exxl.log
 
       Reference: [J. Chem. Theory Comput. 19, 4182 (2023).]
 
       SCDM version: ab96b3061f2a70676ff2b72f19eba53893e0187b-dirty
       exxl version: af6139230a2decfe9b02c7f12d6aa623cbf6a38b
     -------------------------------------------------------

     SCDM FFT initializations: using cell specified in the input file

     SCDM (QR) FFT initialization

     FFT dimensions: ( 108, 100, 120)

     Local G-vectors counts:       4626

     SCDM (Local Orbital) FFT initialization

     FFT dimensions: ( 108, 100, 120)

     Local G-vectors counts:       4626
 <exxl> use expert input:sea.in
 
     Performing O(N) exact-exchange calculation via exxl;
     For more details see:  exxl.log            
 
 current_k,current_spin:           1           1
      <exxl:large memory usage> dxxl:   318.861099243164       MB
      <exxl:large memory usage> dxxl_rma:   318.861099243164       MB
     <exxl:pair_selection>
      total ij pairs:     73920
      delta:   4.61107E-03
      selected <ij> pairs:      6359
      fraction of pairs selected:   8.60%
     </exxl:pair_selection>
     <exxl:domain_truncation>
     0-/25-/50-/75-/100-percentile of the {Omega_ii} size relative to Omega:
        5.75%    8.87%   10.39%   11.80%   14.77% 
     min/max Oii anisotropy (long/short):   1.04 and    1.63
     </exxl:domain_truncation>
     <exxl:bounding_box>
      actual coverage threshold: 2.6450E-04
     </exxl:bounding_box>

     EXX: now go back to refine exchange calculation

     total cpu time spent up to now is       55.6 secs

     per-process dynamical memory:   284.0 Mb

     Self-consistent Calculation

     iteration #  1     ecut=   150.00 Ry     beta= 0.70
     Davidson diagonalization with overlap
     ethr =  1.55E-10,  avg # of iterations = 10.0

     total cpu time spent up to now is       65.5 secs

     total energy              =   -3303.56590905 Ry
     estimated scf accuracy    <       0.03006107 Ry

     iteration #  2     ecut=   150.00 Ry     beta= 0.70
     Davidson diagonalization with overlap
     ethr =  3.91E-06,  avg # of iterations =  2.0

     total cpu time spent up to now is       69.2 secs

     total energy              =   -3303.56902325 Ry
     estimated scf accuracy    <       0.00438797 Ry

     iteration #  3     ecut=   150.00 Ry     beta= 0.70
     Davidson diagonalization with overlap
     ethr =  5.71E-07,  avg # of iterations =  2.0

     total cpu time spent up to now is       73.4 secs

     total energy              =   -3303.56982900 Ry
     estimated scf accuracy    <       0.00033878 Ry

     iteration #  4     ecut=   150.00 Ry     beta= 0.70
     Davidson diagonalization with overlap
     ethr =  4.41E-08,  avg # of iterations =  2.0

     total cpu time spent up to now is       77.5 secs

     total energy              =   -3303.56985526 Ry
     estimated scf accuracy    <       0.00000683 Ry

     iteration #  5     ecut=   150.00 Ry     beta= 0.70
     Davidson diagonalization with overlap
     ethr =  8.90E-10,  avg # of iterations =  3.0

     total cpu time spent up to now is       82.6 secs

     End of self-consistent calculation

          k = 0.0000 0.0000 0.0000 (296086 PWs)   bands (ev):

   -25.0097 -24.8460 -24.8435 -24.8248 -24.8241 -24.7956 -24.7925 -24.6755
   -24.6742 -24.6720 -24.6711 -24.6678 -24.6669 -24.6659 -24.6622 -24.6279
   -24.6271 -24.6240 -24.6239 -24.5771 -24.5702 -24.5231 -24.5194 -24.5178
   -24.5166 -24.5153 -24.5135 -24.5114 -24.5111 -24.4476 -24.4428 -24.4050
   -24.4010 -24.3644 -24.3612 -24.3588 -24.3582 -24.3548 -24.3540 -24.3523
   -24.3512 -24.3506 -24.3479 -24.2256 -24.2227 -24.2208 -24.2173 -24.1285
   -24.1265 -24.0441 -24.0413 -24.0387 -24.0357 -23.9079 -23.9064 -23.9056
   -23.9036 -23.9029 -23.8994 -23.8983 -23.8971 -23.8962 -23.8908 -23.8461
   -23.8413 -23.7993 -23.7974 -23.7371 -23.7322 -23.7296 -23.7283 -23.7272
   -23.7251 -23.7237 -23.7198 -23.6636 -23.6535 -23.6111 -23.6067 -23.6053
   -23.6012 -23.5648 -23.5619 -23.5588 -23.5545 -23.5513 -23.5465 -23.5451
   -23.5438 -23.4147 -23.4126 -23.3726 -23.3689 -23.3495 -23.3457 -23.1514
   -11.1476 -11.1444 -11.1396 -11.1334 -11.1256 -11.1193 -11.1169 -11.1067
   -11.1061 -11.0977 -11.0920 -11.0855 -11.0848 -11.0767 -11.0729 -11.0658
   -11.0608 -11.0583 -11.0560 -11.0517 -11.0473 -11.0418 -11.0361 -11.0336
   -11.0314 -11.0287 -11.0260 -11.0230 -11.0188 -11.0148 -11.0087 -11.0060
   -11.0045 -10.9991 -10.9973 -10.9945 -10.9934 -10.9897 -10.9880 -10.9826
   -10.9806 -10.9795 -10.9711 -10.9701 -10.9681 -10.9643 -10.9636 -10.9615
   -10.9581 -10.9572 -10.9513 -10.9497 -10.9480 -10.9450 -10.9433 -10.9396
   -10.9371 -10.9348 -10.9305 -10.9262 -10.9238 -10.9214 -10.9175 -10.9157
   -10.9122 -10.9092 -10.9078 -10.9071 -10.9017 -10.9000 -10.8976 -10.8965
   -10.8930 -10.8898 -10.8867 -10.8821 -10.8806 -10.8774 -10.8755 -10.8708
   -10.8652 -10.8592 -10.8572 -10.8541 -10.8537 -10.8449 -10.8404 -10.8340
   -10.8319 -10.8303 -10.8233 -10.8221 -10.8152 -10.7934 -10.7888 -10.7825
    -9.2222  -8.8876  -8.8591  -8.8256  -8.7894  -8.7464  -8.7321  -8.5790
    -8.5721  -8.5355  -8.5180  -8.5107  -8.4867  -8.4752  -8.4467  -8.4440
    -8.4322  -8.3927  -8.3797  -8.3602  -8.3403  -8.2999  -8.2756  -8.2677
    -8.2413  -8.2135  -8.1947  -8.1728  -8.1496  -8.1421  -8.1267  -8.0395
    -8.0200  -7.9841  -7.9557  -7.9463  -7.9362  -7.9208  -7.8890  -7.8568
    -7.8468  -7.8305  -7.8221  -7.7069  -7.7067  -7.6497  -7.6248  -7.5515
    -7.3781  -7.2488  -7.2356  -7.2319  -7.2090  -7.0747  -7.0569  -7.0404
    -7.0112  -6.9944  -6.9695  -6.9633  -6.9403  -6.9207  -6.9183  -6.8605
    -6.8559  -6.8124  -6.7917  -6.7738  -6.7293  -6.7231  -6.7111  -6.6906
    -6.6817  -6.6622  -6.6390  -6.5757  -6.5656  -6.5409  -6.5305  -6.5127
    -6.4656  -6.4471  -6.4268  -6.4163  -6.3978  -6.3811  -6.3688  -6.3462
    -6.3180  -6.1839  -6.1597  -6.1016  -6.0775  -6.0503  -6.0260  -5.6460
    -5.3616  -5.3474  -5.3428  -5.3049  -5.3032  -5.2902  -5.2805  -5.2742
    -5.2683  -5.2607  -5.2550  -5.2393  -5.2376  -5.2292  -5.2214  -5.2179
    -5.2153  -5.2005  -5.1927  -5.1888  -5.1814  -5.1800  -5.1740  -5.1667
    -5.1573  -5.1552  -5.1433  -5.1369  -5.1361  -5.1299  -5.1217  -5.1128
    -5.1091  -5.1070  -5.1049  -5.0992  -5.0962  -5.0909  -5.0874  -5.0776
    -5.0749  -5.0637  -5.0604  -5.0602  -5.0498  -5.0402  -5.0365  -5.0335
    -5.0276  -5.0219  -5.0192  -5.0114  -5.0095  -4.9988  -4.9959  -4.9923
    -4.9877  -4.9844  -4.9782  -4.9714  -4.9632  -4.9624  -4.9612  -4.9542
    -4.9476  -4.9416  -4.9385  -4.9344  -4.9229  -4.9181  -4.9128  -4.9033
    -4.9009  -4.8960  -4.8950  -4.8912  -4.8866  -4.8666  -4.8639  -4.8599
    -4.8556  -4.8526  -4.8429  -4.8321  -4.8295  -4.8162  -4.8139  -4.8104
    -4.8020  -4.7944  -4.7902  -4.7837  -4.7732  -4.7599  -4.7546  -4.7512

     highest occupied level (ev):    -4.7512

!    total energy              =   -3303.56985894 Ry
     estimated scf accuracy    <       0.00000099 Ry

     convergence has been achieved in   5 iterations
 averaged(idm_loss):  9.946458093823551E-005

     Using ACE for calculation of exact exchange
     ACE projected onto   384 (nbndproj) and applied to   384 (nbnd) bands
 current_k,current_spin:           1           1
     <exxl:pair_selection>
      total ij pairs:     73920
      delta:   4.98680E-03
      selected <ij> pairs:      5302
      fraction of pairs selected:   7.17%
     </exxl:pair_selection>
     <exxl:domain_truncation>
     0-/25-/50-/75-/100-percentile of the {Omega_ii} size relative to Omega:
        5.34%    7.71%    9.04%    9.98%   12.83% 
     min/max Oii anisotropy (long/short):   1.05 and    1.64
     </exxl:domain_truncation>
     <exxl:bounding_box>
      actual coverage threshold: 2.5990E-04
     </exxl:bounding_box>

     total energy              =   -3303.58393806 Ry
     Harris-Foulkes estimate   =   -3303.58395860 Ry
     est. exchange err (dexx)  =       0.01407912 Ry
     - averaged Fock potential =     378.25605496 Ry
     + Fock energy (ACE)       =    -189.41172952 Ry

     EXX: now go back to refine exchange calculation

     total cpu time spent up to now is       91.0 secs

     per-process dynamical memory:   285.2 Mb

     Self-consistent Calculation

     iteration #  1     ecut=   150.00 Ry     beta= 0.70
     Davidson diagonalization with overlap
     ethr =  8.90E-10,  avg # of iterations =  7.0

     total cpu time spent up to now is       98.1 secs

     total energy              =   -3303.58676919 Ry
     estimated scf accuracy    <       0.00112881 Ry

     iteration #  2     ecut=   150.00 Ry     beta= 0.70
     Davidson diagonalization with overlap
     ethr =  1.47E-07,  avg # of iterations =  2.0

     total cpu time spent up to now is      101.9 secs

     total energy              =   -3303.58706914 Ry
     estimated scf accuracy    <       0.00029456 Ry

     iteration #  3     ecut=   150.00 Ry     beta= 0.70
     Davidson diagonalization with overlap
     ethr =  3.84E-08,  avg # of iterations =  2.0

     total cpu time spent up to now is      105.8 secs

     total energy              =   -3303.58711842 Ry
     estimated scf accuracy    <       0.00000421 Ry

     iteration #  4     ecut=   150.00 Ry     beta= 0.70
     Davidson diagonalization with overlap
     ethr =  5.49E-10,  avg # of iterations =  2.0

     total cpu time spent up to now is      109.5 secs

     End of self-consistent calculation

          k = 0.0000 0.0000 0.0000 (296086 PWs)   bands (ev):

   -24.9999 -24.8390 -24.8365 -24.8178 -24.8154 -24.7854 -24.7822 -24.6689
   -24.6667 -24.6648 -24.6635 -24.6608 -24.6575 -24.6573 -24.6531 -24.6182
   -24.6172 -24.6145 -24.6139 -24.5714 -24.5631 -24.5137 -24.5106 -24.5090
   -24.5070 -24.5062 -24.5039 -24.5025 -24.5013 -24.4421 -24.4379 -24.3995
   -24.3954 -24.3548 -24.3517 -24.3500 -24.3486 -24.3455 -24.3451 -24.3433
   -24.3425 -24.3411 -24.3391 -24.2167 -24.2143 -24.2123 -24.2087 -24.1243
   -24.1217 -24.0350 -24.0316 -24.0304 -24.0263 -23.9009 -23.8989 -23.8972
   -23.8963 -23.8949 -23.8926 -23.8911 -23.8890 -23.8875 -23.8833 -23.8409
   -23.8359 -23.7964 -23.7930 -23.7302 -23.7245 -23.7224 -23.7216 -23.7196
   -23.7178 -23.7162 -23.7126 -23.6585 -23.6504 -23.6046 -23.5985 -23.5981
   -23.5939 -23.5592 -23.5564 -23.5530 -23.5488 -23.5472 -23.5431 -23.5422
   -23.5394 -23.4089 -23.4070 -23.3700 -23.3658 -23.3477 -23.3447 -23.1510
   -11.1351 -11.1313 -11.1260 -11.1197 -11.1115 -11.1063 -11.1035 -11.0932
   -11.0928 -11.0834 -11.0779 -11.0721 -11.0717 -11.0630 -11.0589 -11.0519
   -11.0473 -11.0448 -11.0423 -11.0376 -11.0334 -11.0282 -11.0223 -11.0202
   -11.0178 -11.0156 -11.0127 -11.0091 -11.0045 -11.0012 -10.9946 -10.9914
   -10.9906 -10.9853 -10.9838 -10.9809 -10.9791 -10.9753 -10.9741 -10.9690
   -10.9666 -10.9655 -10.9576 -10.9559 -10.9541 -10.9502 -10.9493 -10.9468
   -10.9442 -10.9427 -10.9376 -10.9358 -10.9338 -10.9307 -10.9290 -10.9256
   -10.9225 -10.9205 -10.9166 -10.9118 -10.9088 -10.9070 -10.9031 -10.9013
   -10.8974 -10.8948 -10.8934 -10.8921 -10.8871 -10.8858 -10.8832 -10.8818
   -10.8782 -10.8743 -10.8718 -10.8668 -10.8651 -10.8620 -10.8605 -10.8554
   -10.8499 -10.8440 -10.8425 -10.8382 -10.8379 -10.8310 -10.8242 -10.8188
   -10.8174 -10.8148 -10.8075 -10.8068 -10.7999 -10.7764 -10.7721 -10.7661
    -9.2135  -8.8802  -8.8519  -8.8176  -8.7823  -8.7395  -8.7238  -8.5724
    -8.5655  -8.5292  -8.5114  -8.5027  -8.4798  -8.4690  -8.4397  -8.4376
    -8.4260  -8.3860  -8.3725  -8.3532  -8.3345  -8.2924  -8.2679  -8.2602
    -8.2346  -8.2066  -8.1878  -8.1657  -8.1426  -8.1339  -8.1198  -8.0334
    -8.0133  -7.9781  -7.9490  -7.9400  -7.9293  -7.9141  -7.8822  -7.8509
    -7.8409  -7.8239  -7.8159  -7.6999  -7.6996  -7.6431  -7.6184  -7.5414
    -7.3711  -7.2402  -7.2268  -7.2242  -7.2007  -7.0664  -7.0486  -7.0324
    -7.0034  -6.9852  -6.9602  -6.9546  -6.9319  -6.9120  -6.9094  -6.8530
    -6.8473  -6.8017  -6.7794  -6.7620  -6.7179  -6.7124  -6.7012  -6.6796
    -6.6704  -6.6527  -6.6278  -6.5638  -6.5548  -6.5303  -6.5188  -6.5022
    -6.4555  -6.4364  -6.4178  -6.4058  -6.3890  -6.3728  -6.3605  -6.3363
    -6.3098  -6.1771  -6.1530  -6.0938  -6.0720  -6.0428  -6.0203  -5.6480
    -5.3644  -5.3520  -5.3467  -5.3050  -5.3043  -5.2903  -5.2814  -5.2768
    -5.2695  -5.2615  -5.2554  -5.2406  -5.2392  -5.2291  -5.2236  -5.2172
    -5.2147  -5.2024  -5.1951  -5.1898  -5.1805  -5.1791  -5.1745  -5.1674
    -5.1592  -5.1578  -5.1457  -5.1392  -5.1368  -5.1311  -5.1234  -5.1149
    -5.1103  -5.1101  -5.1048  -5.1003  -5.0968  -5.0909  -5.0887  -5.0779
    -5.0761  -5.0653  -5.0612  -5.0595  -5.0497  -5.0412  -5.0372  -5.0339
    -5.0283  -5.0219  -5.0199  -5.0127  -5.0108  -4.9988  -4.9969  -4.9925
    -4.9870  -4.9842  -4.9779  -4.9719  -4.9645  -4.9623  -4.9606  -4.9546
    -4.9477  -4.9419  -4.9386  -4.9341  -4.9227  -4.9187  -4.9123  -4.9030
    -4.9007  -4.8961  -4.8943  -4.8928  -4.8861  -4.8667  -4.8642  -4.8600
    -4.8548  -4.8522  -4.8427  -4.8324  -4.8286  -4.8158  -4.8120  -4.8097
    -4.8012  -4.7937  -4.7887  -4.7830  -4.7721  -4.7581  -4.7524  -4.7494

     highest occupied level (ev):    -4.7494

!    total energy              =   -3303.58711858 Ry
     estimated scf accuracy    <       0.00000096 Ry

     convergence has been achieved in   4 iterations
 averaged(idm_loss):  2.467640529357773E-006

     Using ACE for calculation of exact exchange
     ACE projected onto   384 (nbndproj) and applied to   384 (nbnd) bands
 current_k,current_spin:           1           1
     <exxl:pair_selection>
      total ij pairs:     73920
      delta:   5.09006E-03
      selected <ij> pairs:      5144
      fraction of pairs selected:   6.96%
     </exxl:pair_selection>
     <exxl:domain_truncation>
     0-/25-/50-/75-/100-percentile of the {Omega_ii} size relative to Omega:
        5.10%    7.51%    8.83%    9.71%   12.60% 
     min/max Oii anisotropy (long/short):   1.05 and    1.66
     </exxl:domain_truncation>
     <exxl:bounding_box>
      actual coverage threshold: 2.6149E-04
     </exxl:bounding_box>
     BEWARE: negative dexx:  -0.638E-03

     total energy              =   -3303.58648056 Ry
     Harris-Foulkes estimate   =   -3303.58644809 Ry
     est. exchange err (dexx)  =       0.00063802 Ry
     - averaged Fock potential =     378.92018614 Ry
     + Fock energy (ACE)       =    -189.50781860 Ry

     EXX: now go back to refine exchange calculation

     total cpu time spent up to now is      117.1 secs

     per-process dynamical memory:   285.8 Mb

     Self-consistent Calculation

     iteration #  1     ecut=   150.00 Ry     beta= 0.70
     Davidson diagonalization with overlap
     ethr =  5.49E-10,  avg # of iterations =  5.0

     total cpu time spent up to now is      122.9 secs

     total energy              =   -3303.58657818 Ry
     estimated scf accuracy    <       0.00002904 Ry

     iteration #  2     ecut=   150.00 Ry     beta= 0.70
     Davidson diagonalization with overlap
     ethr =  3.78E-09,  avg # of iterations =  2.0

     total cpu time spent up to now is      126.7 secs

     total energy              =   -3303.58658539 Ry
     estimated scf accuracy    <       0.00000710 Ry

     iteration #  3     ecut=   150.00 Ry     beta= 0.70
     Davidson diagonalization with overlap
     ethr =  9.25E-10,  avg # of iterations =  2.0

     total cpu time spent up to now is      130.6 secs

     End of self-consistent calculation

          k = 0.0000 0.0000 0.0000 (296086 PWs)   bands (ev):

   -24.9963 -24.8359 -24.8334 -24.8150 -24.8124 -24.7823 -24.7785 -24.6663
   -24.6639 -24.6623 -24.6607 -24.6578 -24.6543 -24.6540 -24.6499 -24.6153
   -24.6144 -24.6112 -24.6106 -24.5689 -24.5605 -24.5107 -24.5078 -24.5061
   -24.5040 -24.5031 -24.5010 -24.4994 -24.4983 -24.4396 -24.4358 -24.3973
   -24.3931 -24.3523 -24.3488 -24.3471 -24.3455 -24.3426 -24.3423 -24.3405
   -24.3396 -24.3382 -24.3365 -24.2139 -24.2118 -24.2097 -24.2056 -24.1223
   -24.1194 -24.0324 -24.0286 -24.0275 -24.0237 -23.8986 -23.8964 -23.8947
   -23.8935 -23.8922 -23.8901 -23.8886 -23.8862 -23.8848 -23.8807 -23.8384
   -23.8336 -23.7942 -23.7907 -23.7278 -23.7220 -23.7198 -23.7188 -23.7170
   -23.7150 -23.7137 -23.7099 -23.6560 -23.6480 -23.6022 -23.5958 -23.5954
   -23.5911 -23.5567 -23.5541 -23.5501 -23.5464 -23.5448 -23.5407 -23.5399
   -23.5371 -23.4064 -23.4045 -23.3676 -23.3633 -23.3455 -23.3423 -23.1486
   -11.1325 -11.1285 -11.1229 -11.1168 -11.1086 -11.1034 -11.1006 -11.0907
   -11.0898 -11.0807 -11.0751 -11.0693 -11.0690 -11.0601 -11.0559 -11.0490
   -11.0443 -11.0419 -11.0393 -11.0346 -11.0304 -11.0253 -11.0193 -11.0170
   -11.0148 -11.0130 -11.0097 -11.0061 -11.0018 -10.9983 -10.9915 -10.9883
   -10.9877 -10.9823 -10.9810 -10.9779 -10.9761 -10.9722 -10.9709 -10.9659
   -10.9636 -10.9625 -10.9544 -10.9531 -10.9508 -10.9473 -10.9462 -10.9438
   -10.9410 -10.9395 -10.9345 -10.9326 -10.9308 -10.9277 -10.9256 -10.9225
   -10.9194 -10.9174 -10.9136 -10.9086 -10.9058 -10.9036 -10.8998 -10.8980
   -10.8942 -10.8914 -10.8901 -10.8889 -10.8838 -10.8823 -10.8798 -10.8787
   -10.8745 -10.8711 -10.8683 -10.8634 -10.8616 -10.8587 -10.8572 -10.8523
   -10.8462 -10.8406 -10.8393 -10.8349 -10.8346 -10.8275 -10.8202 -10.8155
   -10.8140 -10.8112 -10.8040 -10.8032 -10.7960 -10.7728 -10.7682 -10.7622
    -9.2114  -8.8780  -8.8498  -8.8153  -8.7800  -8.7374  -8.7217  -8.5700
    -8.5636  -8.5270  -8.5095  -8.5005  -8.4775  -8.4667  -8.4374  -8.4353
    -8.4240  -8.3839  -8.3704  -8.3509  -8.3320  -8.2904  -8.2658  -8.2581
    -8.2324  -8.2043  -8.1856  -8.1633  -8.1404  -8.1314  -8.1177  -8.0313
    -8.0110  -7.9760  -7.9466  -7.9379  -7.9272  -7.9120  -7.8801  -7.8488
    -7.8384  -7.8220  -7.8137  -7.6977  -7.6976  -7.6410  -7.6163  -7.5386
    -7.3690  -7.2379  -7.2243  -7.2215  -7.1985  -7.0640  -7.0464  -7.0304
    -7.0012  -6.9826  -6.9580  -6.9522  -6.9294  -6.9094  -6.9069  -6.8507
    -6.8452  -6.7993  -6.7768  -6.7595  -6.7154  -6.7102  -6.6993  -6.6771
    -6.6679  -6.6503  -6.6256  -6.5617  -6.5528  -6.5282  -6.5167  -6.5001
    -6.4533  -6.4346  -6.4159  -6.4038  -6.3872  -6.3710  -6.3586  -6.3344
    -6.3079  -6.1758  -6.1514  -6.0925  -6.0708  -6.0417  -6.0188  -5.6474
    -5.3640  -5.3521  -5.3468  -5.3048  -5.3039  -5.2898  -5.2808  -5.2765
    -5.2693  -5.2611  -5.2553  -5.2403  -5.2388  -5.2285  -5.2233  -5.2167
    -5.2141  -5.2023  -5.1950  -5.1890  -5.1800  -5.1782  -5.1742  -5.1670
    -5.1592  -5.1575  -5.1453  -5.1391  -5.1366  -5.1310  -5.1232  -5.1147
    -5.1104  -5.1101  -5.1045  -5.1001  -5.0964  -5.0907  -5.0885  -5.0777
    -5.0758  -5.0652  -5.0607  -5.0589  -5.0494  -5.0411  -5.0370  -5.0336
    -5.0281  -5.0216  -5.0197  -5.0123  -5.0107  -4.9984  -4.9968  -4.9926
    -4.9862  -4.9839  -4.9775  -4.9719  -4.9642  -4.9624  -4.9604  -4.9542
    -4.9473  -4.9416  -4.9382  -4.9339  -4.9225  -4.9186  -4.9119  -4.9026
    -4.9002  -4.8957  -4.8939  -4.8925  -4.8854  -4.8662  -4.8640  -4.8595
    -4.8541  -4.8515  -4.8420  -4.8321  -4.8280  -4.8151  -4.8116  -4.8090
    -4.8008  -4.7933  -4.7875  -4.7820  -4.7714  -4.7573  -4.7517  -4.7485

     highest occupied level (ev):    -4.7485

!    total energy              =   -3303.58658657 Ry
     estimated scf accuracy    <       0.00000012 Ry

     convergence has been achieved in   3 iterations
 averaged(idm_loss):  9.174740445150320E-008

     Using ACE for calculation of exact exchange
     ACE projected onto   384 (nbndproj) and applied to   384 (nbnd) bands
 current_k,current_spin:           1           1
     <exxl:pair_selection>
      total ij pairs:     73920
      delta:   5.09785E-03
      selected <ij> pairs:      5124
      fraction of pairs selected:   6.93%
     </exxl:pair_selection>
     <exxl:domain_truncation>
     0-/25-/50-/75-/100-percentile of the {Omega_ii} size relative to Omega:
        5.10%    7.51%    8.81%    9.71%   12.60% 
     min/max Oii anisotropy (long/short):   1.05 and    1.66
     </exxl:domain_truncation>
     <exxl:bounding_box>
      actual coverage threshold: 2.6413E-04
     </exxl:bounding_box>
     BEWARE: negative dexx:  -0.829E-04

     total energy              =   -3303.58650370 Ry
     Harris-Foulkes estimate   =   -3303.58648556 Ry
     est. exchange err (dexx)  =       0.00008286 Ry
     - averaged Fock potential =     379.03035575 Ry
     + Fock energy (ACE)       =    -189.52245429 Ry

     EXX: now go back to refine exchange calculation

     total cpu time spent up to now is      138.0 secs

     per-process dynamical memory:   287.0 Mb

     Self-consistent Calculation

     iteration #  1     ecut=   150.00 Ry     beta= 0.70
     Davidson diagonalization with overlap
     ethr =  9.25E-10,  avg # of iterations =  3.0

     total cpu time spent up to now is      142.3 secs

     total energy              =   -3303.58650865 Ry
     estimated scf accuracy    <       0.00000124 Ry

     iteration #  2     ecut=   150.00 Ry     beta= 0.70
     Davidson diagonalization with overlap
     ethr =  1.61E-10,  avg # of iterations =  2.0

     total cpu time spent up to now is      146.2 secs

     End of self-consistent calculation

          k = 0.0000 0.0000 0.0000 (296086 PWs)   bands (ev):

   -24.9954 -24.8350 -24.8326 -24.8141 -24.8116 -24.7815 -24.7776 -24.6655
   -24.6631 -24.6614 -24.6599 -24.6570 -24.6534 -24.6532 -24.6490 -24.6144
   -24.6135 -24.6104 -24.6097 -24.5681 -24.5596 -24.5099 -24.5070 -24.5053
   -24.5031 -24.5022 -24.5001 -24.4987 -24.4975 -24.4388 -24.4350 -24.3965
   -24.3923 -24.3515 -24.3480 -24.3463 -24.3448 -24.3417 -24.3415 -24.3396
   -24.3388 -24.3374 -24.3356 -24.2130 -24.2111 -24.2089 -24.2048 -24.1216
   -24.1186 -24.0315 -24.0277 -24.0267 -24.0230 -23.8978 -23.8956 -23.8939
   -23.8927 -23.8915 -23.8893 -23.8877 -23.8854 -23.8839 -23.8799 -23.8375
   -23.8329 -23.7934 -23.7898 -23.7270 -23.7212 -23.7190 -23.7179 -23.7161
   -23.7143 -23.7130 -23.7092 -23.6552 -23.6471 -23.6013 -23.5950 -23.5946
   -23.5903 -23.5559 -23.5533 -23.5493 -23.5454 -23.5440 -23.5398 -23.5390
   -23.5363 -23.4054 -23.4037 -23.3667 -23.3625 -23.3446 -23.3414 -23.1477
   -11.1317 -11.1277 -11.1222 -11.1160 -11.1079 -11.1027 -11.0999 -11.0899
   -11.0890 -11.0800 -11.0743 -11.0684 -11.0682 -11.0593 -11.0551 -11.0482
   -11.0436 -11.0411 -11.0385 -11.0339 -11.0297 -11.0244 -11.0185 -11.0162
   -11.0139 -11.0122 -11.0089 -11.0054 -11.0010 -10.9975 -10.9907 -10.9874
   -10.9869 -10.9815 -10.9802 -10.9771 -10.9753 -10.9714 -10.9700 -10.9652
   -10.9628 -10.9617 -10.9536 -10.9523 -10.9500 -10.9465 -10.9454 -10.9429
   -10.9402 -10.9387 -10.9338 -10.9318 -10.9301 -10.9269 -10.9248 -10.9217
   -10.9186 -10.9167 -10.9127 -10.9079 -10.9051 -10.9029 -10.8991 -10.8971
   -10.8934 -10.8906 -10.8892 -10.8881 -10.8830 -10.8815 -10.8790 -10.8778
   -10.8737 -10.8703 -10.8675 -10.8626 -10.8608 -10.8579 -10.8564 -10.8514
   -10.8454 -10.8399 -10.8386 -10.8340 -10.8336 -10.8267 -10.8194 -10.8147
   -10.8131 -10.8104 -10.8033 -10.8023 -10.7952 -10.7719 -10.7673 -10.7613
    -9.2108  -8.8774  -8.8492  -8.8147  -8.7793  -8.7368  -8.7211  -8.5694
    -8.5630  -8.5264  -8.5088  -8.4999  -8.4768  -8.4661  -8.4368  -8.4347
    -8.4232  -8.3831  -8.3699  -8.3502  -8.3314  -8.2897  -8.2652  -8.2573
    -8.2317  -8.2037  -8.1849  -8.1627  -8.1397  -8.1308  -8.1171  -8.0305
    -8.0103  -7.9754  -7.9459  -7.9372  -7.9265  -7.9113  -7.8794  -7.8481
    -7.8377  -7.8213  -7.8130  -7.6971  -7.6969  -7.6404  -7.6156  -7.5379
    -7.3683  -7.2372  -7.2236  -7.2208  -7.1978  -7.0633  -7.0458  -7.0297
    -7.0005  -6.9819  -6.9573  -6.9515  -6.9287  -6.9087  -6.9062  -6.8501
    -6.8446  -6.7987  -6.7762  -6.7590  -6.7147  -6.7095  -6.6987  -6.6765
    -6.6673  -6.6498  -6.6249  -6.5611  -6.5523  -6.5276  -6.5162  -6.4995
    -6.4527  -6.4340  -6.4155  -6.4033  -6.3867  -6.3705  -6.3581  -6.3338
    -6.3072  -6.1753  -6.1509  -6.0920  -6.0703  -6.0411  -6.0184  -5.6469
    -5.3638  -5.3520  -5.3466  -5.3045  -5.3035  -5.2894  -5.2805  -5.2765
    -5.2690  -5.2608  -5.2550  -5.2400  -5.2384  -5.2282  -5.2232  -5.2164
    -5.2139  -5.2020  -5.1947  -5.1889  -5.1797  -5.1779  -5.1738  -5.1667
    -5.1589  -5.1572  -5.1451  -5.1388  -5.1364  -5.1308  -5.1230  -5.1146
    -5.1102  -5.1099  -5.1043  -5.0999  -5.0963  -5.0904  -5.0882  -5.0774
    -5.0756  -5.0649  -5.0604  -5.0587  -5.0491  -5.0409  -5.0367  -5.0334
    -5.0279  -5.0213  -5.0195  -5.0120  -5.0106  -4.9982  -4.9966  -4.9924
    -4.9860  -4.9836  -4.9773  -4.9715  -4.9639  -4.9622  -4.9601  -4.9540
    -4.9470  -4.9413  -4.9380  -4.9336  -4.9222  -4.9183  -4.9117  -4.9023
    -4.9000  -4.8956  -4.8937  -4.8922  -4.8853  -4.8659  -4.8638  -4.8592
    -4.8537  -4.8512  -4.8419  -4.8318  -4.8277  -4.8148  -4.8113  -4.8086
    -4.8005  -4.7930  -4.7872  -4.7817  -4.7712  -4.7571  -4.7514  -4.7481

     highest occupied level (ev):    -4.7481

!    total energy              =   -3303.58650888 Ry
     estimated scf accuracy    <       0.00000027 Ry

     convergence has been achieved in   2 iterations
 averaged(idm_loss):  4.489090432713283E-009

     Using ACE for calculation of exact exchange
     ACE projected onto   384 (nbndproj) and applied to   384 (nbnd) bands
 current_k,current_spin:           1           1
     <exxl:pair_selection>
      total ij pairs:     73920
      delta:   5.10660E-03
      selected <ij> pairs:      5121
      fraction of pairs selected:   6.93%
     </exxl:pair_selection>
     <exxl:domain_truncation>
     0-/25-/50-/75-/100-percentile of the {Omega_ii} size relative to Omega:
        5.10%    7.51%    8.81%    9.71%   12.60% 
     min/max Oii anisotropy (long/short):   1.05 and    1.66
     </exxl:domain_truncation>
     <exxl:bounding_box>
      actual coverage threshold: 2.6369E-04
     </exxl:bounding_box>
     BEWARE: negative dexx:  -0.918E-05

     total energy              =   -3303.58649970 Ry
     Harris-Foulkes estimate   =   -3303.58651295 Ry
     est. exchange err (dexx)  =       0.00000918 Ry
     - averaged Fock potential =     379.04682598 Ry
     + Fock energy (ACE)       =    -189.52436250 Ry

     EXX: now go back to refine exchange calculation

     total cpu time spent up to now is      153.7 secs

     per-process dynamical memory:   287.5 Mb

     Self-consistent Calculation

     iteration #  1     ecut=   150.00 Ry     beta= 0.70
     Davidson diagonalization with overlap
     ethr =  1.61E-10,  avg # of iterations =  3.0

     total cpu time spent up to now is      157.8 secs

     End of self-consistent calculation

          k = 0.0000 0.0000 0.0000 (296086 PWs)   bands (ev):

   -24.9960 -24.8356 -24.8331 -24.8146 -24.8121 -24.7820 -24.7782 -24.6660
   -24.6637 -24.6620 -24.6605 -24.6576 -24.6539 -24.6538 -24.6496 -24.6150
   -24.6141 -24.6110 -24.6103 -24.5687 -24.5602 -24.5105 -24.5075 -24.5058
   -24.5037 -24.5027 -24.5007 -24.4992 -24.4981 -24.4393 -24.4356 -24.3971
   -24.3928 -24.3520 -24.3485 -24.3469 -24.3454 -24.3422 -24.3421 -24.3402
   -24.3394 -24.3380 -24.3362 -24.2136 -24.2116 -24.2095 -24.2054 -24.1222
   -24.1192 -24.0321 -24.0284 -24.0273 -24.0235 -23.8984 -23.8961 -23.8944
   -23.8933 -23.8920 -23.8899 -23.8883 -23.8860 -23.8845 -23.8805 -23.8381
   -23.8335 -23.7940 -23.7904 -23.7276 -23.7219 -23.7196 -23.7185 -23.7167
   -23.7148 -23.7135 -23.7097 -23.6558 -23.6477 -23.6019 -23.5956 -23.5952
   -23.5909 -23.5564 -23.5539 -23.5499 -23.5460 -23.5446 -23.5404 -23.5396
   -23.5369 -23.4060 -23.4042 -23.3673 -23.3631 -23.3452 -23.3420 -23.1483
   -11.1321 -11.1281 -11.1226 -11.1164 -11.1083 -11.1030 -11.1003 -11.0903
   -11.0894 -11.0804 -11.0747 -11.0689 -11.0686 -11.0598 -11.0554 -11.0486
   -11.0440 -11.0415 -11.0389 -11.0343 -11.0301 -11.0248 -11.0189 -11.0166
   -11.0144 -11.0125 -11.0093 -11.0058 -11.0013 -10.9978 -10.9911 -10.9879
   -10.9873 -10.9819 -10.9806 -10.9776 -10.9757 -10.9719 -10.9704 -10.9655
   -10.9632 -10.9621 -10.9540 -10.9527 -10.9504 -10.9469 -10.9458 -10.9434
   -10.9406 -10.9391 -10.9342 -10.9322 -10.9305 -10.9274 -10.9252 -10.9221
   -10.9191 -10.9171 -10.9131 -10.9083 -10.9055 -10.9033 -10.8994 -10.8975
   -10.8936 -10.8910 -10.8896 -10.8885 -10.8834 -10.8819 -10.8793 -10.8782
   -10.8741 -10.8707 -10.8678 -10.8630 -10.8611 -10.8583 -10.8568 -10.8518
   -10.8458 -10.8403 -10.8390 -10.8344 -10.8339 -10.8271 -10.8198 -10.8151
   -10.8135 -10.8108 -10.8037 -10.8026 -10.7956 -10.7723 -10.7677 -10.7616
    -9.2113  -8.8779  -8.8497  -8.8152  -8.7798  -8.7373  -8.7216  -8.5699
    -8.5635  -8.5269  -8.5093  -8.5004  -8.4773  -8.4666  -8.4373  -8.4352
    -8.4237  -8.3837  -8.3704  -8.3507  -8.3319  -8.2903  -8.2657  -8.2579
    -8.2323  -8.2042  -8.1854  -8.1632  -8.1402  -8.1313  -8.1176  -8.0311
    -8.0108  -7.9759  -7.9465  -7.9377  -7.9270  -7.9118  -7.8800  -7.8487
    -7.8383  -7.8219  -7.8136  -7.6977  -7.6975  -7.6410  -7.6162  -7.5385
    -7.3688  -7.2377  -7.2242  -7.2214  -7.1984  -7.0639  -7.0464  -7.0303
    -7.0011  -6.9825  -6.9579  -6.9521  -6.9293  -6.9093  -6.9069  -6.8507
    -6.8452  -6.7993  -6.7768  -6.7596  -6.7153  -6.7101  -6.6993  -6.6771
    -6.6679  -6.6504  -6.6256  -6.5617  -6.5529  -6.5282  -6.5168  -6.5002
    -6.4533  -6.4346  -6.4162  -6.4039  -6.3873  -6.3711  -6.3588  -6.3345
    -6.3078  -6.1760  -6.1516  -6.0928  -6.0710  -6.0418  -6.0191  -5.6476
    -5.3645  -5.3527  -5.3473  -5.3052  -5.3042  -5.2901  -5.2812  -5.2772
    -5.2697  -5.2615  -5.2557  -5.2406  -5.2391  -5.2289  -5.2239  -5.2171
    -5.2146  -5.2028  -5.1954  -5.1896  -5.1804  -5.1786  -5.1746  -5.1674
    -5.1596  -5.1579  -5.1458  -5.1396  -5.1371  -5.1315  -5.1237  -5.1153
    -5.1110  -5.1106  -5.1050  -5.1006  -5.0970  -5.0912  -5.0889  -5.0782
    -5.0763  -5.0657  -5.0612  -5.0594  -5.0499  -5.0416  -5.0374  -5.0341
    -5.0286  -5.0220  -5.0202  -5.0127  -5.0114  -4.9989  -4.9973  -4.9932
    -4.9867  -4.9843  -4.9781  -4.9723  -4.9647  -4.9630  -4.9609  -4.9548
    -4.9478  -4.9421  -4.9387  -4.9344  -4.9230  -4.9191  -4.9125  -4.9030
    -4.9007  -4.8963  -4.8944  -4.8930  -4.8860  -4.8667  -4.8645  -4.8600
    -4.8545  -4.8520  -4.8426  -4.8326  -4.8284  -4.8156  -4.8120  -4.8094
    -4.8012  -4.7937  -4.7880  -4.7825  -4.7720  -4.7578  -4.7521  -4.7489

     highest occupied level (ev):    -4.7489

!    total energy              =   -3303.58650005 Ry
     estimated scf accuracy    <       0.00000047 Ry

     convergence has been achieved in   1 iterations
 averaged(idm_loss):  5.270263114809381E-010

     Using ACE for calculation of exact exchange
     ACE projected onto   384 (nbndproj) and applied to   384 (nbnd) bands
 current_k,current_spin:           1           1
     <exxl:pair_selection>
      total ij pairs:     73920
      delta:   5.10459E-03
      selected <ij> pairs:      5120
      fraction of pairs selected:   6.93%
     </exxl:pair_selection>
     <exxl:domain_truncation>
     0-/25-/50-/75-/100-percentile of the {Omega_ii} size relative to Omega:
        5.10%    7.51%    8.81%    9.71%   12.60% 
     min/max Oii anisotropy (long/short):   1.05 and    1.66
     </exxl:domain_truncation>
     <exxl:bounding_box>
      actual coverage threshold: 2.6357E-04
     </exxl:bounding_box>

     total energy              =   -3303.58650246 Ry
     Harris-Foulkes estimate   =   -3303.58647336 Ry
     est. exchange err (dexx)  =       0.00000241 Ry
     - averaged Fock potential =     379.05140713 Ry
     + Fock energy (ACE)       =    -189.52704703 Ry

     EXX: now go back to refine exchange calculation

     total cpu time spent up to now is      165.1 secs

     per-process dynamical memory:   288.1 Mb

     Self-consistent Calculation

     iteration #  1     ecut=   150.00 Ry     beta= 0.70
     Davidson diagonalization with overlap
     ethr =  1.61E-10,  avg # of iterations =  3.0

     total cpu time spent up to now is      169.0 secs

     End of self-consistent calculation

          k = 0.0000 0.0000 0.0000 (296086 PWs)   bands (ev):

   -24.9952 -24.8348 -24.8324 -24.8138 -24.8114 -24.7812 -24.7774 -24.6652
   -24.6629 -24.6612 -24.6597 -24.6568 -24.6532 -24.6530 -24.6488 -24.6142
   -24.6133 -24.6102 -24.6095 -24.5679 -24.5594 -24.5097 -24.5068 -24.5051
   -24.5029 -24.5019 -24.4999 -24.4984 -24.4973 -24.4386 -24.4348 -24.3963
   -24.3920 -24.3512 -24.3478 -24.3461 -24.3446 -24.3415 -24.3413 -24.3394
   -24.3386 -24.3372 -24.3354 -24.2128 -24.2109 -24.2087 -24.2046 -24.1214
   -24.1184 -24.0313 -24.0276 -24.0265 -24.0228 -23.8976 -23.8954 -23.8937
   -23.8925 -23.8913 -23.8891 -23.8875 -23.8852 -23.8837 -23.8797 -23.8373
   -23.8327 -23.7932 -23.7896 -23.7268 -23.7210 -23.7187 -23.7177 -23.7159
   -23.7140 -23.7127 -23.7089 -23.6550 -23.6469 -23.6011 -23.5948 -23.5944
   -23.5901 -23.5557 -23.5531 -23.5491 -23.5452 -23.5438 -23.5396 -23.5388
   -23.5361 -23.4052 -23.4035 -23.3665 -23.3623 -23.3444 -23.3412 -23.1475
   -11.1315 -11.1275 -11.1220 -11.1158 -11.1077 -11.1024 -11.0997 -11.0897
   -11.0888 -11.0798 -11.0741 -11.0682 -11.0680 -11.0592 -11.0548 -11.0480
   -11.0434 -11.0409 -11.0383 -11.0337 -11.0295 -11.0242 -11.0183 -11.0160
   -11.0137 -11.0119 -11.0087 -11.0052 -11.0007 -10.9972 -10.9904 -10.9872
   -10.9867 -10.9813 -10.9800 -10.9770 -10.9750 -10.9712 -10.9698 -10.9649
   -10.9626 -10.9615 -10.9534 -10.9521 -10.9498 -10.9463 -10.9452 -10.9427
   -10.9400 -10.9385 -10.9336 -10.9316 -10.9299 -10.9267 -10.9246 -10.9215
   -10.9184 -10.9165 -10.9125 -10.9076 -10.9048 -10.9027 -10.8988 -10.8969
   -10.8930 -10.8904 -10.8890 -10.8878 -10.8827 -10.8813 -10.8787 -10.8776
   -10.8735 -10.8701 -10.8672 -10.8624 -10.8605 -10.8577 -10.8562 -10.8512
   -10.8452 -10.8397 -10.8384 -10.8338 -10.8333 -10.8265 -10.8192 -10.8145
   -10.8129 -10.8102 -10.8030 -10.8020 -10.7950 -10.7717 -10.7671 -10.7610
    -9.2106  -8.8772  -8.8490  -8.8145  -8.7791  -8.7366  -8.7209  -8.5692
    -8.5628  -8.5262  -8.5086  -8.4997  -8.4766  -8.4659  -8.4366  -8.4345
    -8.4230  -8.3830  -8.3697  -8.3500  -8.3312  -8.2896  -8.2650  -8.2572
    -8.2316  -8.2035  -8.1847  -8.1625  -8.1395  -8.1306  -8.1169  -8.0304
    -8.0101  -7.9752  -7.9458  -7.9370  -7.9263  -7.9111  -7.8793  -7.8480
    -7.8375  -7.8212  -7.8128  -7.6969  -7.6967  -7.6402  -7.6154  -7.5378
    -7.3681  -7.2370  -7.2234  -7.2206  -7.1977  -7.0631  -7.0456  -7.0296
    -7.0003  -6.9817  -6.9572  -6.9513  -6.9286  -6.9085  -6.9061  -6.8499
    -6.8444  -6.7985  -6.7761  -6.7588  -6.7145  -6.7093  -6.6985  -6.6764
    -6.6671  -6.6496  -6.6248  -6.5609  -6.5521  -6.5274  -6.5160  -6.4994
    -6.4525  -6.4339  -6.4154  -6.4031  -6.3865  -6.3704  -6.3580  -6.3337
    -6.3070  -6.1752  -6.1508  -6.0919  -6.0702  -6.0410  -6.0183  -5.6468
    -5.3638  -5.3519  -5.3465  -5.3044  -5.3034  -5.2894  -5.2805  -5.2764
    -5.2689  -5.2607  -5.2549  -5.2399  -5.2383  -5.2281  -5.2231  -5.2163
    -5.2138  -5.2020  -5.1947  -5.1888  -5.1796  -5.1778  -5.1738  -5.1667
    -5.1588  -5.1572  -5.1450  -5.1388  -5.1363  -5.1307  -5.1230  -5.1145
    -5.1102  -5.1098  -5.1043  -5.0998  -5.0962  -5.0904  -5.0881  -5.0774
    -5.0755  -5.0649  -5.0604  -5.0587  -5.0491  -5.0408  -5.0366  -5.0333
    -5.0278  -5.0213  -5.0194  -5.0119  -5.0106  -4.9981  -4.9965  -4.9924
    -4.9859  -4.9835  -4.9773  -4.9715  -4.9639  -4.9622  -4.9601  -4.9540
    -4.9470  -4.9413  -4.9379  -4.9336  -4.9222  -4.9183  -4.9117  -4.9022
    -4.8999  -4.8956  -4.8936  -4.8922  -4.8852  -4.8659  -4.8637  -4.8592
    -4.8537  -4.8512  -4.8418  -4.8318  -4.8277  -4.8148  -4.8112  -4.8086
    -4.8004  -4.7930  -4.7872  -4.7817  -4.7712  -4.7570  -4.7513  -4.7481

     highest occupied level (ev):    -4.7481

!    total energy              =   -3303.58650250 Ry
     estimated scf accuracy    <       0.00000040 Ry

     convergence has been achieved in   1 iterations
 averaged(idm_loss):  1.870666954673084E-010

     Using ACE for calculation of exact exchange
     ACE projected onto   384 (nbndproj) and applied to   384 (nbnd) bands
 current_k,current_spin:           1           1
     <exxl:pair_selection>
      total ij pairs:     73920
      delta:   5.10471E-03
      selected <ij> pairs:      5120
      fraction of pairs selected:   6.93%
     </exxl:pair_selection>
     <exxl:domain_truncation>
     0-/25-/50-/75-/100-percentile of the {Omega_ii} size relative to Omega:
        5.10%    7.51%    8.81%    9.71%   12.60% 
     min/max Oii anisotropy (long/short):   1.05 and    1.66
     </exxl:domain_truncation>
     <exxl:bounding_box>
      actual coverage threshold: 2.6360E-04
     </exxl:bounding_box>
     BEWARE: negative dexx:  -0.326E-05

     total energy              =   -3303.58649923 Ry
     Harris-Foulkes estimate   =   -3303.58652230 Ry
     est. exchange err (dexx)  =       0.00000326 Ry
     - averaged Fock potential =     379.05191198 Ry
     + Fock energy (ACE)       =    -189.52486168 Ry

     EXX: now go back to refine exchange calculation

     total cpu time spent up to now is      176.7 secs

     per-process dynamical memory:   289.3 Mb

     Self-consistent Calculation

     iteration #  1     ecut=   150.00 Ry     beta= 0.70
     Davidson diagonalization with overlap
     ethr =  1.61E-10,  avg # of iterations =  2.0

     total cpu time spent up to now is      180.6 secs

     End of self-consistent calculation

          k = 0.0000 0.0000 0.0000 (296086 PWs)   bands (ev):

   -24.9959 -24.8355 -24.8331 -24.8146 -24.8121 -24.7819 -24.7781 -24.6660
   -24.6636 -24.6619 -24.6604 -24.6575 -24.6539 -24.6537 -24.6495 -24.6149
   -24.6140 -24.6109 -24.6102 -24.5686 -24.5601 -24.5104 -24.5075 -24.5058
   -24.5036 -24.5026 -24.5006 -24.4991 -24.4980 -24.4393 -24.4355 -24.3970
   -24.3927 -24.3519 -24.3485 -24.3468 -24.3453 -24.3422 -24.3420 -24.3401
   -24.3394 -24.3379 -24.3361 -24.2136 -24.2116 -24.2094 -24.2053 -24.1221
   -24.1191 -24.0320 -24.0283 -24.0272 -24.0235 -23.8983 -23.8961 -23.8944
   -23.8932 -23.8920 -23.8898 -23.8882 -23.8859 -23.8845 -23.8804 -23.8380
   -23.8334 -23.7939 -23.7904 -23.7275 -23.7218 -23.7195 -23.7184 -23.7167
   -23.7148 -23.7135 -23.7097 -23.6557 -23.6476 -23.6018 -23.5955 -23.5951
   -23.5908 -23.5564 -23.5539 -23.5499 -23.5460 -23.5445 -23.5404 -23.5395
   -23.5368 -23.4060 -23.4042 -23.3673 -23.3630 -23.3452 -23.3419 -23.1483
   -11.1320 -11.1281 -11.1225 -11.1163 -11.1082 -11.1030 -11.1002 -11.0902
   -11.0893 -11.0803 -11.0746 -11.0688 -11.0686 -11.0597 -11.0554 -11.0485
   -11.0440 -11.0414 -11.0388 -11.0342 -11.0301 -11.0247 -11.0189 -11.0165
   -11.0143 -11.0125 -11.0093 -11.0058 -11.0013 -10.9978 -10.9910 -10.9878
   -10.9872 -10.9818 -10.9805 -10.9775 -10.9756 -10.9718 -10.9704 -10.9654
   -10.9632 -10.9620 -10.9540 -10.9526 -10.9504 -10.9468 -10.9457 -10.9433
   -10.9405 -10.9390 -10.9341 -10.9322 -10.9304 -10.9273 -10.9251 -10.9220
   -10.9190 -10.9171 -10.9131 -10.9082 -10.9054 -10.9032 -10.8994 -10.8974
   -10.8935 -10.8909 -10.8896 -10.8884 -10.8833 -10.8818 -10.8793 -10.8781
   -10.8741 -10.8706 -10.8677 -10.8629 -10.8611 -10.8582 -10.8568 -10.8518
   -10.8457 -10.8402 -10.8389 -10.8344 -10.8339 -10.8271 -10.8198 -10.8151
   -10.8135 -10.8108 -10.8036 -10.8025 -10.7956 -10.7722 -10.7676 -10.7616
    -9.2112  -8.8778  -8.8496  -8.8151  -8.7797  -8.7372  -8.7215  -8.5698
    -8.5634  -8.5268  -8.5093  -8.5003  -8.4772  -8.4665  -8.4372  -8.4351
    -8.4237  -8.3836  -8.3703  -8.3507  -8.3318  -8.2902  -8.2657  -8.2578
    -8.2322  -8.2042  -8.1853  -8.1631  -8.1402  -8.1313  -8.1175  -8.0310
    -8.0107  -7.9759  -7.9464  -7.9377  -7.9270  -7.9117  -7.8799  -7.8486
    -7.8382  -7.8218  -7.8135  -7.6976  -7.6974  -7.6409  -7.6161  -7.5384
    -7.3688  -7.2377  -7.2241  -7.2213  -7.1984  -7.0638  -7.0463  -7.0303
    -7.0010  -6.9824  -6.9578  -6.9520  -6.9293  -6.9092  -6.9068  -6.8506
    -6.8451  -6.7992  -6.7768  -6.7595  -6.7153  -6.7100  -6.6992  -6.6771
    -6.6678  -6.6503  -6.6255  -6.5617  -6.5528  -6.5281  -6.5167  -6.5001
    -6.4533  -6.4346  -6.4161  -6.4039  -6.3873  -6.3711  -6.3587  -6.3344
    -6.3078  -6.1759  -6.1515  -6.0927  -6.0710  -6.0418  -6.0190  -5.6476
    -5.3645  -5.3527  -5.3472  -5.3052  -5.3041  -5.2901  -5.2812  -5.2771
    -5.2696  -5.2614  -5.2557  -5.2406  -5.2390  -5.2288  -5.2238  -5.2170
    -5.2145  -5.2027  -5.1954  -5.1895  -5.1804  -5.1786  -5.1745  -5.1674
    -5.1596  -5.1579  -5.1458  -5.1395  -5.1371  -5.1314  -5.1237  -5.1152
    -5.1109  -5.1105  -5.1050  -5.1006  -5.0969  -5.0911  -5.0889  -5.0781
    -5.0762  -5.0656  -5.0611  -5.0594  -5.0498  -5.0416  -5.0374  -5.0341
    -5.0286  -5.0220  -5.0202  -5.0127  -5.0113  -4.9989  -4.9973  -4.9931
    -4.9867  -4.9843  -4.9780  -4.9722  -4.9646  -4.9629  -4.9608  -4.9547
    -4.9477  -4.9420  -4.9387  -4.9343  -4.9229  -4.9190  -4.9125  -4.9030
    -4.9007  -4.8963  -4.8944  -4.8929  -4.8860  -4.8666  -4.8645  -4.8599
    -4.8544  -4.8519  -4.8426  -4.8325  -4.8284  -4.8156  -4.8120  -4.8094
    -4.8012  -4.7938  -4.7879  -4.7824  -4.7719  -4.7578  -4.7521  -4.7489

     highest occupied level (ev):    -4.7489

!    total energy              =   -3303.58649920 Ry
     estimated scf accuracy    <       0.00000036 Ry

     convergence has been achieved in   1 iterations
 averaged(idm_loss):  1.554427697669780E-010
 SeA: SCF plateaus at a tight intrinsic exxl accuracy
 uncertainty in exx energy (Ry) about   3.263403357323114E-006

[...]
O             0.0952125684        0.9184666003        0.8320518183
O             0.1553057903        0.7499445069        0.9135696806
O             0.4051717023        0.9163370797        0.8328972738
O             0.3426179515        0.7491627393        0.9149911833
O             0.5937143283        0.0861116363        0.0869576583
O             0.6562411220        0.2550828676        0.1669035886
O             0.9082848056        0.0883744563        0.0836571229
O             0.8442694650        0.2553033180        0.1659987394
O             0.5935709283        0.2456031113        0.3330507107
O             0.6557273753        0.0792982917        0.4169955222
O             0.9069787727        0.2500823980        0.3327622711
O             0.8432014249        0.0836996485        0.4164571329
O             0.5947514174        0.0808282644        0.5846577298
O             0.6575652427        0.2481066049        0.6666710284
O             0.9059773629        0.0864312637        0.5829896588
O             0.8450981977        0.2544788505        0.6660736771
O             0.5980490408        0.2502440351        0.8347663719
O             0.6579606361        0.0833453372        0.9202539425
O             0.9083038772        0.2563394452        0.8326509079
O             0.8453105675        0.0905108782        0.9172064259
O             0.5926298776        0.4214403771        0.0842770520
O             0.6562759955        0.5872989002        0.1679109129
O             0.9065034490        0.4219512856        0.0833208375
O             0.8441716521        0.5898952636        0.1650145458
O             0.5939379743        0.5795538796        0.3344592732
O             0.6557636232        0.4118357356        0.4164053397
O             0.9049948287        0.5869568500        0.3322652971
O             0.8436170952        0.4180018239        0.4133692551
O             0.5931961996        0.4135097232        0.5832097469
O             0.6550905595        0.5797535481        0.6681671917
O             0.9060885444        0.4197999675        0.5797035828
O             0.8425761958        0.5837180135        0.6650894906
O             0.5924788419        0.5838323083        0.8342705013
O             0.6565948926        0.4189028477        0.9177558777
O             0.9039887804        0.5887687578        0.8317018115
O             0.8439764330        0.4221896959        0.9167145388
O             0.5945901111        0.7523689767        0.0834051961
O             0.6557864206        0.9185116928        0.1679439214
O             0.9055733136        0.7567605369        0.0804206610
O             0.8431856374        0.9222615671        0.1651483026
O             0.5913337931        0.9127934120        0.3344367486
O             0.6527129080        0.7464614996        0.4194979499
O             0.9047901352        0.9173227500        0.3324624348
O             0.8406916359        0.7516350686        0.4172998938
O             0.5926102531        0.7476221041        0.5866556247
O             0.6565236291        0.9142733202        0.6699828010
O             0.9038407637        0.7529529937        0.5837159313
O             0.8445315274        0.9206918289        0.6679737124
O             0.5932347564        0.9182049301        0.8363815682
O             0.6547410785        0.7506810598        0.9166735098
O             0.9076282751        0.9238289211        0.8341547639
O             0.8418655188        0.7566088120        0.9142353418
H             0.0257784648        0.0828737827        0.0844883567
H             0.1333169318        0.1891773069        0.1344856236
H             0.3838836672        0.0851316069        0.0219521295
H             0.2747685758        0.2517697291        0.1648265401
H             0.1182115846        0.1823440219        0.3606330696
H             0.1323251537        0.0152929114        0.3842744778
H             0.4750790879        0.2449053990        0.3312810800
H             0.2748178474        0.0788147737        0.4148757000
H             0.0247830309        0.0849062544        0.5816106621
H             0.2274415722        0.2465113486        0.6657140933
H             0.3824078191        0.0166857991        0.6129873076
H             0.3686798625        0.1852857142        0.6345733934
H             0.0264617467        0.2506179959        0.8314915697
H             0.2268402472        0.0846101885        0.9180312125
H             0.4798670039        0.2484802801        0.8311348349
H             0.3677887075        0.0219075508        0.8851309488
H             0.1187562303        0.4176524923        0.0208398188
H             0.2258314602        0.5870278384        0.1642183497
H             0.4742641174        0.4204280929        0.0834015559
H             0.3694127004        0.6479313733        0.1355727808
H             0.1151631620        0.5166000700        0.3598937529
H             0.1314390449        0.3499664352        0.3845235255
H             0.3819984361        0.5189903029        0.3620134017
H             0.2733576169        0.4108501371        0.4124520415
H             0.1182499151        0.3512361571        0.6118322702
H             0.1305922341        0.6404259126        0.6347554421
H             0.3809124962        0.4144423288        0.5193066775
H             0.2718606473        0.5790850014        0.6666023077
H             0.1169481797        0.5230268221        0.8626173320
H             0.2271738547        0.4146745420        0.9133375004
H             0.4742634601        0.5819736060        0.8323966622
H             0.3707831862        0.3523666861        0.8847768941
H             0.0246611787        0.7527038498        0.0786404315
H             0.2258844000        0.9149259418        0.1652352101
H             0.4768050142        0.7535277155        0.0825106916
H             0.3675960618        0.9797457235        0.1369512195
H             0.0228861641        0.9134578338        0.3297993648
H             0.1311998956        0.6839642767        0.3843797341
H             0.3794648174        0.8502807711        0.3640952048
H             0.2718265000        0.7449309171        0.4183177114
H             0.1144488819        0.7474431740        0.5217012412
H             0.1315296675        0.9766551243        0.6344501478
H             0.4736995459        0.7447015522        0.5853157051
H             0.2728801858        0.9122568818        0.6648960728
H             0.0258615139        0.9213329638        0.8341639140
H             0.2247738216        0.7507532077        0.9134320061
H             0.3820157333        0.8538581921        0.8624828866
H             0.3664938450        0.6867561606        0.8857849901
H             0.5242651693        0.0879206376        0.0866745953
H             0.7256270014        0.2563325240        0.1655914888
H             0.8826865192        0.0264660385        0.1123694382
H             0.8677669327        0.1932840573        0.1360040320
H             0.6178308558        0.2501536198        0.2718459134
H             0.6310003881        0.0183712657        0.3862217229
H             0.9763389946        0.2460480710        0.3329909193
H             0.7737740941        0.0818792310        0.4175358855
H             0.5253251981        0.0796835559        0.5830585722
H             0.6337204275        0.1872060406        0.6352232907
H             0.8819715956        0.0266237164        0.6159355103
H             0.7756535193        0.2540795632        0.6650050091
H             0.6202883506        0.1878456837        0.8649256573
H             0.6331657823        0.0213196276        0.8911829070
H             0.8838864569        0.2582752197        0.7714273775
H             0.7758699508        0.0898699620        0.9174937500
H             0.6171452897        0.4224279693        0.0231077625
H             0.7257233180        0.5872818615        0.1689012624
H             0.9758496713        0.4193391002        0.0830179389
H             0.8680064774        0.5271640768        0.1364323244
H             0.5244813068        0.5807279393        0.3343792205
H             0.7251292990        0.4145603047        0.4144542713
H             0.9744229741        0.5864239167        0.3332381691
H             0.8685534776        0.3574910585        0.3821207251
H             0.5238167617        0.4141093078        0.5804229457
H             0.7245049967        0.5788563308        0.6655749840
H             0.9754768011        0.4162832196        0.5786860075
H             0.8678955132        0.5245209311        0.6321323067
H             0.6166357882        0.5220145668        0.8642450297
H             0.7260532593        0.4192720773        0.9170200811
H             0.9733433229        0.5868421083        0.8304045908
H             0.8667877787        0.4847561215        0.8871131920
H             0.6180480755        0.6925364645        0.1167154085
H             0.6315121668        0.9816153438        0.1401684588
H             0.8824576691        0.6945089465        0.1102670034
H             0.7737450986        0.9203370799        0.1655233765
H             0.5219009872        0.9101217042        0.3346561058
H             0.7221044719        0.7485250942        0.4201962587
H             0.8809835497        0.9202247017        0.2710780044
H             0.8637271581        0.8135465648        0.3869063021
H             0.6166186857        0.6866028252        0.6178133747
H             0.6327863274        0.9756181769        0.6392334893
H             0.9732915197        0.7527753107        0.5843360992
H             0.7751731782        0.9188375725        0.6703183351
H             0.5238549951        0.9162445555        0.8355162885
H             0.6308812496        0.6883350035        0.8873519740
H             0.8821628105        0.8634849538        0.8652697038
H             0.7724444233        0.7531062960        0.9143430083
H             0.1165032050        0.0208438813        0.1141191555
H             0.1332563268        0.3106312530        0.1343958389
H             0.3816620876        0.1468075310        0.1124102199
H             0.3657944466        0.3133515662        0.1357455636
H             0.1181175854        0.2453192617        0.2705648371
H             0.1324157303        0.0775343327        0.4745686661
H             0.3841095498        0.2463087387        0.2706507065
H             0.3661171945        0.1391675238        0.3849415977
H             0.1175759457        0.1425922751        0.6108590533
H             0.1360509052        0.2466541871        0.7260220437
H             0.3825802099        0.0774684535        0.5222898478
H             0.3681221160        0.3067560167        0.6332397323
H             0.1163522111        0.1879504403        0.8628053869
H             0.1358286241        0.0834194141        0.9790527452
H             0.3888779582        0.2477000211        0.7700965506
H             0.3705361794        0.1428967325        0.8845540334
H             0.1186617575        0.4788670373        0.1113127955
H             0.1338490488        0.6452896487        0.1330733704
H             0.3828817662        0.4804126254        0.1118855725
H             0.3679181251        0.5859916983        0.2261149109
H             0.1166261103        0.5795889231        0.2698053063
H             0.1319468347        0.4114377716        0.4750061265
H             0.3812733964        0.6399225562        0.3649337526
H             0.3649732987        0.3503625816        0.3833165940
H             0.1163470430        0.4722725987        0.6122469226
H             0.1303968014        0.5806631181        0.7258101282
H             0.3805233299        0.4742570086        0.6108328500
H             0.3631050651        0.5796007756        0.7272704231
H             0.1166250888        0.6442774249        0.8615384719
H             0.1357138914        0.3552965826        0.8836642009
H             0.3845904174        0.5196924454        0.8627545606
H             0.3681810852        0.4135379259        0.9756797191
H             0.1156259754        0.7505968974        0.0180320084
H             0.1355247323        0.8540730621        0.1329841700
H             0.3854578945        0.8140064390        0.1119289982
H             0.3670860344        0.9162517448        0.2268895193
H             0.1146241928        0.9115744937        0.2696751753
H             0.1297208730        0.8050073654        0.3836637214
H             0.3809881779        0.9714468638        0.3648266576
H             0.3633433667        0.7449010294        0.4788392365
H             0.1160966856        0.8085994422        0.6124862681
H             0.1317267311        0.9180925404        0.7262506067
H             0.3825754581        0.6831354847        0.6141458134
H             0.3636484093        0.8499762525        0.6356274426
H             0.1181287720        0.9795436010        0.8639570406
H             0.1343050731        0.8128380048        0.8832364672
H             0.3814276802        0.9136037254        0.7714769771
H             0.3673550830        0.7487786692        0.9761243591
H             0.6154129697        0.1492497536        0.1163819004
H             0.6343996278        0.3175578189        0.1364477377
H             0.8846235597        0.0884846760        0.0221583663
H             0.8678905427        0.2520044640        0.2274691349
H             0.6169339248        0.3072335476        0.3638021354
H             0.6320771010        0.1396066322        0.3845839710
H             0.8838587942        0.1888836380        0.3642487901
H             0.8643313866        0.0845510083        0.4787828835
H             0.6159927631        0.0798072664        0.5223790322
H             0.6318533334        0.3080914654        0.6351405591
H             0.8828990712        0.1477233484        0.6142842682
H             0.8656431975        0.3158005493        0.6332115888
H             0.6215771827        0.2474811784        0.7732744916
H             0.6335553056        0.0834211765        0.9814806152
H             0.8854212449        0.3186712177        0.8626044098
H             0.8657038377        0.1527129925        0.8855457440
H             0.6166610656        0.4833400246        0.1141000854
H             0.6347309315        0.5851489360        0.2301225715
H             0.8849504526        0.3596456094        0.1142907249
H             0.8678616832        0.5890337241        0.2265420119
H             0.6144723546        0.6409115819        0.3673296465
H             0.6332715895        0.4739752628        0.3858622693
H             0.8840427319        0.6484639112        0.3646675978
H             0.8665357232        0.4791599551        0.3817273007
H             0.6158697343        0.4138736066        0.5213537566
H             0.6327074505        0.5184668034        0.6363547038
H             0.8849106404        0.4194037764        0.5173675478
H             0.8649613454        0.6456677399        0.6343193071
H             0.6168749148        0.5810981474        0.7730477939
H             0.6366259254        0.3560031323        0.8869017773
H             0.8826640946        0.5862780950        0.7694182604
H             0.8678250159        0.4235737240        0.9781669877
H             0.6177223445        0.8136309655        0.1148173761
H             0.6315211563        0.9170554918        0.2292023887
H             0.8809336955        0.7547402508        0.0192516365
H             0.8644029445        0.8604506500        0.1333160171
H             0.6131945683        0.8511528351        0.3660528934
H             0.6322402270        0.7473086915        0.4820369720
H             0.8820266486        0.9795680940        0.3626806354
H             0.8650710378        0.7545194170        0.4785416417
H             0.6162905572        0.8080324020        0.6188539897
H             0.6321957897        0.9171845325        0.7312552104
H             0.8833939203        0.8149327078        0.6157027320
H             0.8665819965        0.9220311124        0.7300413847
H             0.6141478477        0.8550447875        0.8665323475
H             0.6321673095        0.7492475417        0.9785772709
H             0.8841935179        0.9848924542        0.8656357862
H             0.8642389920        0.6951345019        0.8826948130
End final coordinates


 
     init_run     :     96.83s CPU      3.97s WALL (       1 calls)
     electrons    :   6124.92s CPU    214.12s WALL (      16 calls)
     update_pot   :     39.05s CPU      1.39s WALL (       1 calls)
     forces       :      5.77s CPU      0.19s WALL (       2 calls)
     stress       :     24.71s CPU      9.07s WALL (       2 calls)

     Called by init_run:
     aceinit0     :      0.00s CPU      0.00s WALL (       1 calls)
     wfcinit      :     55.54s CPU      1.91s WALL (       1 calls)
     potinit      :     36.38s CPU      1.35s WALL (       1 calls)
     hinit0       :      4.49s CPU      0.28s WALL (       1 calls)
     tsvdw_pair   :     46.74s CPU      1.58s WALL (      54 calls)

     Called by electrons:
     c_bands      :   4040.78s CPU    139.65s WALL (      50 calls)
     sum_band     :    426.76s CPU     14.39s WALL (      50 calls)
     v_of_rho     :   1741.77s CPU     63.21s WALL (      54 calls)
     mix_rho      :      9.44s CPU      0.33s WALL (      50 calls)
     tsvdw_rhotot :    263.76s CPU     10.27s WALL (      54 calls)
     tsvdw_screen :    785.35s CPU     29.56s WALL (      54 calls)
     tsvdw_veff   :     12.38s CPU      0.40s WALL (      54 calls)
     tsvdw_dveff  :    329.47s CPU     11.11s WALL (      54 calls)
     tsvdw_energy :     71.16s CPU      2.31s WALL (      54 calls)

     Called by c_bands:
     init_us_2    :     16.27s CPU      0.56s WALL (     101 calls)
     init_us_2:cp :     16.25s CPU      0.56s WALL (     101 calls)
     regterg      :   4021.60s CPU    138.97s WALL (      50 calls)

     Called by *egterg:
     rdiaghg      :    932.45s CPU     35.82s WALL (     177 calls)
     h_psi        :   2380.70s CPU     79.60s WALL (     193 calls)
     g_psi        :      2.60s CPU      0.10s WALL (     142 calls)

     Called by h_psi:
     h_psi:calbec :     32.07s CPU      1.03s WALL (     193 calls)
     vloc_psi     :   2155.31s CPU     72.31s WALL (     193 calls)
     add_vuspsi   :     17.55s CPU      0.59s WALL (     193 calls)

     General routines
     calbec       :    150.04s CPU      4.88s WALL (     448 calls)
     fft          :     32.92s CPU      1.18s WALL (     427 calls)
     ffts         :      3.95s CPU      0.13s WALL (      50 calls)
     fftw         :   1820.42s CPU     69.08s WALL (   76148 calls)
     fftcw        :     94.73s CPU      3.33s WALL (    6144 calls)
 
     Parallel routines

     EXX routines
     exx_grid     :      0.00s CPU      0.00s WALL (       2 calls)
     exxinit      :      1.67s CPU      0.06s WALL (      16 calls)
     vexx         :   3358.19s CPU    114.82s WALL (      16 calls)
     matcalc      :    103.87s CPU      3.39s WALL (     217 calls)
     aceupdate    :    105.51s CPU      4.68s WALL (      16 calls)
     vexxace      :    223.56s CPU      7.25s WALL (     171 calls)
     aceinit      :   3475.89s CPU    119.91s WALL (      16 calls)
     SeA          :   3358.19s CPU    114.82s WALL (      16 calls)
     SeA:SCDM     :    293.41s CPU     11.58s WALL (      16 calls)
     SeA:exx      :   2907.19s CPU     97.89s WALL (      16 calls)
     SeA:rot_D    :    155.84s CPU      5.29s WALL (      16 calls)
     SeA:decomp   :    105.51s CPU      4.68s WALL (      16 calls)
     SeA:MISC     :      1.72s CPU      0.06s WALL (      32 calls)
 
     PWSCF        :      2h45m CPU   6m38.63s WALL

 
   This run was terminated on:  23:34:48  19Jun2024            

=------------------------------------------------------------------------------=
   JOB DONE.
=------------------------------------------------------------------------------=
